version 2
run Experiment19_9staticReaders_361TagsGrid-0-20150406-10:26:43-18304
attr configname Experiment19_9staticReaders_361TagsGrid
attr datetime 20150406-10:26:43
attr experiment Experiment19_9staticReaders_361TagsGrid
attr inifile omnetpp.ini
attr iterationvars ""
attr iterationvars2 $repetition=0
attr measurement ""
attr network _01_RfidSim
attr processid 18304
attr repetition 0
attr replication #0
attr resultdir results
attr runnumber 0
attr seedset 0

vector 1850  _01_RfidSim.reader[0].nic.phy  RadioState  ETV
vector 1851  _01_RfidSim.reader[0].nic.phy  RadioChannel  ETV
vector 1852  _01_RfidSim.reader[1].nic.phy  RadioState  ETV
vector 1853  _01_RfidSim.reader[1].nic.phy  RadioChannel  ETV
vector 1854  _01_RfidSim.reader[2].nic.phy  RadioState  ETV
vector 1855  _01_RfidSim.reader[2].nic.phy  RadioChannel  ETV
vector 1856  _01_RfidSim.reader[3].nic.phy  RadioState  ETV
vector 1857  _01_RfidSim.reader[3].nic.phy  RadioChannel  ETV
vector 1858  _01_RfidSim.reader[4].nic.phy  RadioState  ETV
vector 1859  _01_RfidSim.reader[4].nic.phy  RadioChannel  ETV
vector 1860  _01_RfidSim.reader[5].nic.phy  RadioState  ETV
vector 1861  _01_RfidSim.reader[5].nic.phy  RadioChannel  ETV
vector 1862  _01_RfidSim.reader[6].nic.phy  RadioState  ETV
vector 1863  _01_RfidSim.reader[6].nic.phy  RadioChannel  ETV
vector 1864  _01_RfidSim.reader[7].nic.phy  RadioState  ETV
vector 1865  _01_RfidSim.reader[7].nic.phy  RadioChannel  ETV
vector 1866  _01_RfidSim.reader[8].nic.phy  RadioState  ETV
vector 1867  _01_RfidSim.reader[8].nic.phy  RadioChannel  ETV
vector 1503  _01_RfidSim.tag[274].nic  TagReceivedQuery  ETV
vector 1507  _01_RfidSim.tag[275].nic  TagReceivedQuery  ETV
vector 1511  _01_RfidSim.tag[276].nic  TagReceivedQuery  ETV
vector 1579  _01_RfidSim.tag[293].nic  TagReceivedQuery  ETV
vector 1583  _01_RfidSim.tag[294].nic  TagReceivedQuery  ETV
vector 1587  _01_RfidSim.tag[295].nic  TagReceivedQuery  ETV
vector 1651  _01_RfidSim.tag[311].nic  TagReceivedQuery  ETV
vector 1655  _01_RfidSim.tag[312].nic  TagReceivedQuery  ETV
vector 1659  _01_RfidSim.tag[313].nic  TagReceivedQuery  ETV
vector 1663  _01_RfidSim.tag[314].nic  TagReceivedQuery  ETV
vector 1667  _01_RfidSim.tag[315].nic  TagReceivedQuery  ETV
vector 1727  _01_RfidSim.tag[330].nic  TagReceivedQuery  ETV
vector 1731  _01_RfidSim.tag[331].nic  TagReceivedQuery  ETV
vector 1735  _01_RfidSim.tag[332].nic  TagReceivedQuery  ETV
vector 1739  _01_RfidSim.tag[333].nic  TagReceivedQuery  ETV
vector 1743  _01_RfidSim.tag[334].nic  TagReceivedQuery  ETV
vector 1803  _01_RfidSim.tag[349].nic  TagReceivedQuery  ETV
vector 1807  _01_RfidSim.tag[350].nic  TagReceivedQuery  ETV
vector 1811  _01_RfidSim.tag[351].nic  TagReceivedQuery  ETV
vector 1815  _01_RfidSim.tag[352].nic  TagReceivedQuery  ETV
vector 1819  _01_RfidSim.tag[353].nic  TagReceivedQuery  ETV
vector 463  _01_RfidSim.tag[14].nic  TagReceivedQuery  ETV
vector 467  _01_RfidSim.tag[15].nic  TagReceivedQuery  ETV
vector 471  _01_RfidSim.tag[16].nic  TagReceivedQuery  ETV
vector 475  _01_RfidSim.tag[17].nic  TagReceivedQuery  ETV
vector 539  _01_RfidSim.tag[33].nic  TagReceivedQuery  ETV
vector 543  _01_RfidSim.tag[34].nic  TagReceivedQuery  ETV
vector 547  _01_RfidSim.tag[35].nic  TagReceivedQuery  ETV
vector 551  _01_RfidSim.tag[36].nic  TagReceivedQuery  ETV
vector 615  _01_RfidSim.tag[52].nic  TagReceivedQuery  ETV
vector 619  _01_RfidSim.tag[53].nic  TagReceivedQuery  ETV
vector 623  _01_RfidSim.tag[54].nic  TagReceivedQuery  ETV
vector 627  _01_RfidSim.tag[55].nic  TagReceivedQuery  ETV
vector 691  _01_RfidSim.tag[71].nic  TagReceivedQuery  ETV
vector 695  _01_RfidSim.tag[72].nic  TagReceivedQuery  ETV
vector 699  _01_RfidSim.tag[73].nic  TagReceivedQuery  ETV
vector 771  _01_RfidSim.tag[91].nic  TagReceivedQuery  ETV
vector 775  _01_RfidSim.tag[92].nic  TagReceivedQuery  ETV
vector 411  _01_RfidSim.tag[1].nic  TagReceivedQuery  ETV
vector 415  _01_RfidSim.tag[2].nic  TagReceivedQuery  ETV
vector 419  _01_RfidSim.tag[3].nic  TagReceivedQuery  ETV
vector 423  _01_RfidSim.tag[4].nic  TagReceivedQuery  ETV
vector 487  _01_RfidSim.tag[20].nic  TagReceivedQuery  ETV
vector 491  _01_RfidSim.tag[21].nic  TagReceivedQuery  ETV
vector 495  _01_RfidSim.tag[22].nic  TagReceivedQuery  ETV
vector 499  _01_RfidSim.tag[23].nic  TagReceivedQuery  ETV
vector 563  _01_RfidSim.tag[39].nic  TagReceivedQuery  ETV
vector 567  _01_RfidSim.tag[40].nic  TagReceivedQuery  ETV
vector 571  _01_RfidSim.tag[41].nic  TagReceivedQuery  ETV
vector 575  _01_RfidSim.tag[42].nic  TagReceivedQuery  ETV
vector 643  _01_RfidSim.tag[59].nic  TagReceivedQuery  ETV
vector 647  _01_RfidSim.tag[60].nic  TagReceivedQuery  ETV
vector 651  _01_RfidSim.tag[61].nic  TagReceivedQuery  ETV
vector 719  _01_RfidSim.tag[78].nic  TagReceivedQuery  ETV
vector 723  _01_RfidSim.tag[79].nic  TagReceivedQuery  ETV
vector 1479  _01_RfidSim.tag[268].nic  TagReceivedQuery  ETV
vector 1483  _01_RfidSim.tag[269].nic  TagReceivedQuery  ETV
vector 1555  _01_RfidSim.tag[287].nic  TagReceivedQuery  ETV
vector 1559  _01_RfidSim.tag[288].nic  TagReceivedQuery  ETV
vector 1563  _01_RfidSim.tag[289].nic  TagReceivedQuery  ETV
vector 1627  _01_RfidSim.tag[305].nic  TagReceivedQuery  ETV
vector 1631  _01_RfidSim.tag[306].nic  TagReceivedQuery  ETV
vector 1635  _01_RfidSim.tag[307].nic  TagReceivedQuery  ETV
vector 1639  _01_RfidSim.tag[308].nic  TagReceivedQuery  ETV
vector 1703  _01_RfidSim.tag[324].nic  TagReceivedQuery  ETV
vector 1707  _01_RfidSim.tag[325].nic  TagReceivedQuery  ETV
vector 1711  _01_RfidSim.tag[326].nic  TagReceivedQuery  ETV
vector 1715  _01_RfidSim.tag[327].nic  TagReceivedQuery  ETV
vector 1779  _01_RfidSim.tag[343].nic  TagReceivedQuery  ETV
vector 1783  _01_RfidSim.tag[344].nic  TagReceivedQuery  ETV
vector 1787  _01_RfidSim.tag[345].nic  TagReceivedQuery  ETV
vector 1791  _01_RfidSim.tag[346].nic  TagReceivedQuery  ETV
vector 1531  _01_RfidSim.tag[281].nic  TagReceivedQuery  ETV
vector 1535  _01_RfidSim.tag[282].nic  TagReceivedQuery  ETV
vector 1603  _01_RfidSim.tag[299].nic  TagReceivedQuery  ETV
vector 1607  _01_RfidSim.tag[300].nic  TagReceivedQuery  ETV
vector 1611  _01_RfidSim.tag[301].nic  TagReceivedQuery  ETV
vector 1679  _01_RfidSim.tag[318].nic  TagReceivedQuery  ETV
vector 1683  _01_RfidSim.tag[319].nic  TagReceivedQuery  ETV
vector 1687  _01_RfidSim.tag[320].nic  TagReceivedQuery  ETV
vector 1691  _01_RfidSim.tag[321].nic  TagReceivedQuery  ETV
vector 1755  _01_RfidSim.tag[337].nic  TagReceivedQuery  ETV
vector 1759  _01_RfidSim.tag[338].nic  TagReceivedQuery  ETV
vector 1763  _01_RfidSim.tag[339].nic  TagReceivedQuery  ETV
vector 1767  _01_RfidSim.tag[340].nic  TagReceivedQuery  ETV
vector 1831  _01_RfidSim.tag[356].nic  TagReceivedQuery  ETV
vector 1835  _01_RfidSim.tag[357].nic  TagReceivedQuery  ETV
vector 1839  _01_RfidSim.tag[358].nic  TagReceivedQuery  ETV
vector 1843  _01_RfidSim.tag[359].nic  TagReceivedQuery  ETV
vector 435  _01_RfidSim.tag[7].nic  TagReceivedQuery  ETV
vector 439  _01_RfidSim.tag[8].nic  TagReceivedQuery  ETV
vector 443  _01_RfidSim.tag[9].nic  TagReceivedQuery  ETV
vector 447  _01_RfidSim.tag[10].nic  TagReceivedQuery  ETV
vector 451  _01_RfidSim.tag[11].nic  TagReceivedQuery  ETV
vector 511  _01_RfidSim.tag[26].nic  TagReceivedQuery  ETV
vector 515  _01_RfidSim.tag[27].nic  TagReceivedQuery  ETV
vector 519  _01_RfidSim.tag[28].nic  TagReceivedQuery  ETV
vector 523  _01_RfidSim.tag[29].nic  TagReceivedQuery  ETV
vector 527  _01_RfidSim.tag[30].nic  TagReceivedQuery  ETV
vector 591  _01_RfidSim.tag[46].nic  TagReceivedQuery  ETV
vector 595  _01_RfidSim.tag[47].nic  TagReceivedQuery  ETV
vector 599  _01_RfidSim.tag[48].nic  TagReceivedQuery  ETV
vector 667  _01_RfidSim.tag[65].nic  TagReceivedQuery  ETV
vector 671  _01_RfidSim.tag[66].nic  TagReceivedQuery  ETV
vector 675  _01_RfidSim.tag[67].nic  TagReceivedQuery  ETV
vector 747  _01_RfidSim.tag[85].nic  TagReceivedQuery  ETV
vector 380  _01_RfidSim.reader[2].nic  ReaderSendAcknowledgement  ETV
vector 618  _01_RfidSim.tag[53].nic  TagReceivedAcknowledgement  ETV
vector 376  _01_RfidSim.reader[1].nic  ReaderSendAcknowledgement  ETV
vector 404  _01_RfidSim.reader[8].nic  ReaderSendAcknowledgement  ETV
vector 372  _01_RfidSim.reader[0].nic  ReaderSendAcknowledgement  ETV
vector 396  _01_RfidSim.reader[6].nic  ReaderSendAcknowledgement  ETV
vector 594  _01_RfidSim.tag[47].nic  TagReceivedAcknowledgement  ETV
vector 1834  _01_RfidSim.tag[357].nic  TagReceivedAcknowledgement  ETV
vector 566  _01_RfidSim.tag[40].nic  TagReceivedAcknowledgement  ETV
vector 1482  _01_RfidSim.tag[269].nic  TagReceivedAcknowledgement  ETV
vector 823  _01_RfidSim.tag[104].nic  TagReceivedQuery  ETV
vector 895  _01_RfidSim.tag[122].nic  TagReceivedQuery  ETV
vector 899  _01_RfidSim.tag[123].nic  TagReceivedQuery  ETV
vector 903  _01_RfidSim.tag[124].nic  TagReceivedQuery  ETV
vector 971  _01_RfidSim.tag[141].nic  TagReceivedQuery  ETV
vector 975  _01_RfidSim.tag[142].nic  TagReceivedQuery  ETV
vector 979  _01_RfidSim.tag[143].nic  TagReceivedQuery  ETV
vector 1043  _01_RfidSim.tag[159].nic  TagReceivedQuery  ETV
vector 1047  _01_RfidSim.tag[160].nic  TagReceivedQuery  ETV
vector 1051  _01_RfidSim.tag[161].nic  TagReceivedQuery  ETV
vector 1055  _01_RfidSim.tag[162].nic  TagReceivedQuery  ETV
vector 1059  _01_RfidSim.tag[163].nic  TagReceivedQuery  ETV
vector 1119  _01_RfidSim.tag[178].nic  TagReceivedQuery  ETV
vector 1123  _01_RfidSim.tag[179].nic  TagReceivedQuery  ETV
vector 1127  _01_RfidSim.tag[180].nic  TagReceivedQuery  ETV
vector 1131  _01_RfidSim.tag[181].nic  TagReceivedQuery  ETV
vector 1135  _01_RfidSim.tag[182].nic  TagReceivedQuery  ETV
vector 1195  _01_RfidSim.tag[197].nic  TagReceivedQuery  ETV
vector 1199  _01_RfidSim.tag[198].nic  TagReceivedQuery  ETV
vector 1203  _01_RfidSim.tag[199].nic  TagReceivedQuery  ETV
vector 1207  _01_RfidSim.tag[200].nic  TagReceivedQuery  ETV
vector 1211  _01_RfidSim.tag[201].nic  TagReceivedQuery  ETV
vector 1275  _01_RfidSim.tag[217].nic  TagReceivedQuery  ETV
vector 1279  _01_RfidSim.tag[218].nic  TagReceivedQuery  ETV
vector 1283  _01_RfidSim.tag[219].nic  TagReceivedQuery  ETV
vector 1351  _01_RfidSim.tag[236].nic  TagReceivedQuery  ETV
vector 1355  _01_RfidSim.tag[237].nic  TagReceivedQuery  ETV
vector 1359  _01_RfidSim.tag[238].nic  TagReceivedQuery  ETV
vector 1431  _01_RfidSim.tag[256].nic  TagReceivedQuery  ETV
vector 470  _01_RfidSim.tag[16].nic  TagReceivedAcknowledgement  ETV
vector 1682  _01_RfidSim.tag[319].nic  TagReceivedAcknowledgement  ETV
vector 388  _01_RfidSim.reader[4].nic  ReaderSendAcknowledgement  ETV
vector 1782  _01_RfidSim.tag[344].nic  TagReceivedAcknowledgement  ETV
vector 718  _01_RfidSim.tag[78].nic  TagReceivedAcknowledgement  ETV
vector 1282  _01_RfidSim.tag[219].nic  TagReceivedAcknowledgement  ETV
vector 462  _01_RfidSim.tag[14].nic  TagReceivedAcknowledgement  ETV
vector 1762  _01_RfidSim.tag[339].nic  TagReceivedAcknowledgement  ETV
vector 1558  _01_RfidSim.tag[288].nic  TagReceivedAcknowledgement  ETV
vector 650  _01_RfidSim.tag[61].nic  TagReceivedAcknowledgement  ETV
vector 400  _01_RfidSim.reader[7].nic  ReaderSendAcknowledgement  ETV
vector 1734  _01_RfidSim.tag[332].nic  TagReceivedAcknowledgement  ETV
vector 694  _01_RfidSim.tag[72].nic  TagReceivedAcknowledgement  ETV
vector 1754  _01_RfidSim.tag[337].nic  TagReceivedAcknowledgement  ETV
vector 1702  _01_RfidSim.tag[324].nic  TagReceivedAcknowledgement  ETV
vector 442  _01_RfidSim.tag[9].nic  TagReceivedAcknowledgement  ETV
vector 422  _01_RfidSim.tag[4].nic  TagReceivedAcknowledgement  ETV
vector 1806  _01_RfidSim.tag[350].nic  TagReceivedAcknowledgement  ETV
vector 474  _01_RfidSim.tag[17].nic  TagReceivedAcknowledgement  ETV
vector 1606  _01_RfidSim.tag[300].nic  TagReceivedAcknowledgement  ETV
vector 1710  _01_RfidSim.tag[326].nic  TagReceivedAcknowledgement  ETV
vector 570  _01_RfidSim.tag[41].nic  TagReceivedAcknowledgement  ETV
vector 518  _01_RfidSim.tag[28].nic  TagReceivedAcknowledgement  ETV
vector 698  _01_RfidSim.tag[73].nic  TagReceivedAcknowledgement  ETV
vector 1838  _01_RfidSim.tag[358].nic  TagReceivedAcknowledgement  ETV
vector 1562  _01_RfidSim.tag[289].nic  TagReceivedAcknowledgement  ETV
vector 418  _01_RfidSim.tag[3].nic  TagReceivedAcknowledgement  ETV
vector 674  _01_RfidSim.tag[67].nic  TagReceivedAcknowledgement  ETV
vector 1810  _01_RfidSim.tag[351].nic  TagReceivedAcknowledgement  ETV
vector 546  _01_RfidSim.tag[35].nic  TagReceivedAcknowledgement  ETV
vector 1534  _01_RfidSim.tag[282].nic  TagReceivedAcknowledgement  ETV
vector 490  _01_RfidSim.tag[21].nic  TagReceivedAcknowledgement  ETV
vector 466  _01_RfidSim.tag[15].nic  TagReceivedAcknowledgement  ETV
vector 1790  _01_RfidSim.tag[346].nic  TagReceivedAcknowledgement  ETV
vector 414  _01_RfidSim.tag[2].nic  TagReceivedAcknowledgement  ETV
vector 770  _01_RfidSim.tag[91].nic  TagReceivedAcknowledgement  ETV
vector 1610  _01_RfidSim.tag[301].nic  TagReceivedAcknowledgement  ETV
vector 494  _01_RfidSim.tag[22].nic  TagReceivedAcknowledgement  ETV
vector 1634  _01_RfidSim.tag[307].nic  TagReceivedAcknowledgement  ETV
vector 538  _01_RfidSim.tag[33].nic  TagReceivedAcknowledgement  ETV
vector 642  _01_RfidSim.tag[59].nic  TagReceivedAcknowledgement  ETV
vector 1662  _01_RfidSim.tag[314].nic  TagReceivedAcknowledgement  ETV
vector 1478  _01_RfidSim.tag[268].nic  TagReceivedAcknowledgement  ETV
vector 626  _01_RfidSim.tag[55].nic  TagReceivedAcknowledgement  ETV
vector 1690  _01_RfidSim.tag[321].nic  TagReceivedAcknowledgement  ETV
vector 410  _01_RfidSim.tag[1].nic  TagReceivedAcknowledgement  ETV
vector 1118  _01_RfidSim.tag[178].nic  TagReceivedAcknowledgement  ETV
vector 1778  _01_RfidSim.tag[343].nic  TagReceivedAcknowledgement  ETV
vector 690  _01_RfidSim.tag[71].nic  TagReceivedAcknowledgement  ETV
vector 1530  _01_RfidSim.tag[281].nic  TagReceivedAcknowledgement  ETV
vector 1130  _01_RfidSim.tag[181].nic  TagReceivedAcknowledgement  ETV
vector 498  _01_RfidSim.tag[23].nic  TagReceivedAcknowledgement  ETV
vector 1786  _01_RfidSim.tag[345].nic  TagReceivedAcknowledgement  ETV
vector 774  _01_RfidSim.tag[92].nic  TagReceivedAcknowledgement  ETV
vector 1686  _01_RfidSim.tag[320].nic  TagReceivedAcknowledgement  ETV
vector 722  _01_RfidSim.tag[79].nic  TagReceivedAcknowledgement  ETV
vector 1630  _01_RfidSim.tag[306].nic  TagReceivedAcknowledgement  ETV
vector 542  _01_RfidSim.tag[34].nic  TagReceivedAcknowledgement  ETV
vector 1766  _01_RfidSim.tag[340].nic  TagReceivedAcknowledgement  ETV
vector 574  _01_RfidSim.tag[42].nic  TagReceivedAcknowledgement  ETV
vector 1122  _01_RfidSim.tag[179].nic  TagReceivedAcknowledgement  ETV
vector 1706  _01_RfidSim.tag[325].nic  TagReceivedAcknowledgement  ETV
vector 622  _01_RfidSim.tag[54].nic  TagReceivedAcknowledgement  ETV
vector 1678  _01_RfidSim.tag[318].nic  TagReceivedAcknowledgement  ETV
vector 562  _01_RfidSim.tag[39].nic  TagReceivedAcknowledgement  ETV
vector 1050  _01_RfidSim.tag[161].nic  TagReceivedAcknowledgement  ETV
vector 1626  _01_RfidSim.tag[305].nic  TagReceivedAcknowledgement  ETV
vector 614  _01_RfidSim.tag[52].nic  TagReceivedAcknowledgement  ETV
vector 1758  _01_RfidSim.tag[338].nic  TagReceivedAcknowledgement  ETV
vector 646  _01_RfidSim.tag[60].nic  TagReceivedAcknowledgement  ETV
vector 1430  _01_RfidSim.tag[256].nic  TagReceivedAcknowledgement  ETV
vector 1554  _01_RfidSim.tag[287].nic  TagReceivedAcknowledgement  ETV
vector 550  _01_RfidSim.tag[36].nic  TagReceivedAcknowledgement  ETV
vector 486  _01_RfidSim.tag[20].nic  TagReceivedAcknowledgement  ETV
vector 1814  _01_RfidSim.tag[352].nic  TagReceivedAcknowledgement  ETV
vector 1638  _01_RfidSim.tag[308].nic  TagReceivedAcknowledgement  ETV
vector 1842  _01_RfidSim.tag[359].nic  TagReceivedAcknowledgement  ETV
vector 847  _01_RfidSim.tag[110].nic  TagReceivedQuery  ETV
vector 851  _01_RfidSim.tag[111].nic  TagReceivedQuery  ETV
vector 919  _01_RfidSim.tag[128].nic  TagReceivedQuery  ETV
vector 923  _01_RfidSim.tag[129].nic  TagReceivedQuery  ETV
vector 927  _01_RfidSim.tag[130].nic  TagReceivedQuery  ETV
vector 995  _01_RfidSim.tag[147].nic  TagReceivedQuery  ETV
vector 999  _01_RfidSim.tag[148].nic  TagReceivedQuery  ETV
vector 1003  _01_RfidSim.tag[149].nic  TagReceivedQuery  ETV
vector 1007  _01_RfidSim.tag[150].nic  TagReceivedQuery  ETV
vector 1071  _01_RfidSim.tag[166].nic  TagReceivedQuery  ETV
vector 1075  _01_RfidSim.tag[167].nic  TagReceivedQuery  ETV
vector 1079  _01_RfidSim.tag[168].nic  TagReceivedQuery  ETV
vector 1083  _01_RfidSim.tag[169].nic  TagReceivedQuery  ETV
vector 1147  _01_RfidSim.tag[185].nic  TagReceivedQuery  ETV
vector 1151  _01_RfidSim.tag[186].nic  TagReceivedQuery  ETV
vector 1155  _01_RfidSim.tag[187].nic  TagReceivedQuery  ETV
vector 1159  _01_RfidSim.tag[188].nic  TagReceivedQuery  ETV
vector 1223  _01_RfidSim.tag[204].nic  TagReceivedQuery  ETV
vector 1227  _01_RfidSim.tag[205].nic  TagReceivedQuery  ETV
vector 1231  _01_RfidSim.tag[206].nic  TagReceivedQuery  ETV
vector 1235  _01_RfidSim.tag[207].nic  TagReceivedQuery  ETV
vector 1299  _01_RfidSim.tag[223].nic  TagReceivedQuery  ETV
vector 1303  _01_RfidSim.tag[224].nic  TagReceivedQuery  ETV
vector 1307  _01_RfidSim.tag[225].nic  TagReceivedQuery  ETV
vector 1311  _01_RfidSim.tag[226].nic  TagReceivedQuery  ETV
vector 1375  _01_RfidSim.tag[242].nic  TagReceivedQuery  ETV
vector 1379  _01_RfidSim.tag[243].nic  TagReceivedQuery  ETV
vector 1383  _01_RfidSim.tag[244].nic  TagReceivedQuery  ETV
vector 1455  _01_RfidSim.tag[262].nic  TagReceivedQuery  ETV
vector 1459  _01_RfidSim.tag[263].nic  TagReceivedQuery  ETV
vector 795  _01_RfidSim.tag[97].nic  TagReceivedQuery  ETV
vector 799  _01_RfidSim.tag[98].nic  TagReceivedQuery  ETV
vector 871  _01_RfidSim.tag[116].nic  TagReceivedQuery  ETV
vector 875  _01_RfidSim.tag[117].nic  TagReceivedQuery  ETV
vector 879  _01_RfidSim.tag[118].nic  TagReceivedQuery  ETV
vector 943  _01_RfidSim.tag[134].nic  TagReceivedQuery  ETV
vector 947  _01_RfidSim.tag[135].nic  TagReceivedQuery  ETV
vector 951  _01_RfidSim.tag[136].nic  TagReceivedQuery  ETV
vector 955  _01_RfidSim.tag[137].nic  TagReceivedQuery  ETV
vector 1019  _01_RfidSim.tag[153].nic  TagReceivedQuery  ETV
vector 1023  _01_RfidSim.tag[154].nic  TagReceivedQuery  ETV
vector 1027  _01_RfidSim.tag[155].nic  TagReceivedQuery  ETV
vector 1031  _01_RfidSim.tag[156].nic  TagReceivedQuery  ETV
vector 1095  _01_RfidSim.tag[172].nic  TagReceivedQuery  ETV
vector 1099  _01_RfidSim.tag[173].nic  TagReceivedQuery  ETV
vector 1103  _01_RfidSim.tag[174].nic  TagReceivedQuery  ETV
vector 1107  _01_RfidSim.tag[175].nic  TagReceivedQuery  ETV
vector 1171  _01_RfidSim.tag[191].nic  TagReceivedQuery  ETV
vector 1175  _01_RfidSim.tag[192].nic  TagReceivedQuery  ETV
vector 1179  _01_RfidSim.tag[193].nic  TagReceivedQuery  ETV
vector 1183  _01_RfidSim.tag[194].nic  TagReceivedQuery  ETV
vector 1247  _01_RfidSim.tag[210].nic  TagReceivedQuery  ETV
vector 1251  _01_RfidSim.tag[211].nic  TagReceivedQuery  ETV
vector 1255  _01_RfidSim.tag[212].nic  TagReceivedQuery  ETV
vector 1259  _01_RfidSim.tag[213].nic  TagReceivedQuery  ETV
vector 1327  _01_RfidSim.tag[230].nic  TagReceivedQuery  ETV
vector 1331  _01_RfidSim.tag[231].nic  TagReceivedQuery  ETV
vector 1335  _01_RfidSim.tag[232].nic  TagReceivedQuery  ETV
vector 1403  _01_RfidSim.tag[249].nic  TagReceivedQuery  ETV
vector 1407  _01_RfidSim.tag[250].nic  TagReceivedQuery  ETV
vector 1586  _01_RfidSim.tag[295].nic  TagReceivedAcknowledgement  ETV
vector 746  _01_RfidSim.tag[85].nic  TagReceivedAcknowledgement  ETV
vector 392  _01_RfidSim.reader[5].nic  ReaderSendAcknowledgement  ETV
vector 1382  _01_RfidSim.tag[244].nic  TagReceivedAcknowledgement  ETV
vector 1714  _01_RfidSim.tag[327].nic  TagReceivedAcknowledgement  ETV
vector 384  _01_RfidSim.reader[3].nic  ReaderSendAcknowledgement  ETV
vector 870  _01_RfidSim.tag[116].nic  TagReceivedAcknowledgement  ETV
vector 1002  _01_RfidSim.tag[149].nic  TagReceivedAcknowledgement  ETV
vector 522  _01_RfidSim.tag[29].nic  TagReceivedAcknowledgement  ETV
vector 1730  _01_RfidSim.tag[331].nic  TagReceivedAcknowledgement  ETV
vector 1018  _01_RfidSim.tag[153].nic  TagReceivedAcknowledgement  ETV
vector 1150  _01_RfidSim.tag[186].nic  TagReceivedAcknowledgement  ETV
vector 798  _01_RfidSim.tag[98].nic  TagReceivedAcknowledgement  ETV
vector 1742  _01_RfidSim.tag[334].nic  TagReceivedAcknowledgement  ETV
vector 1306  _01_RfidSim.tag[225].nic  TagReceivedAcknowledgement  ETV
vector 1178  _01_RfidSim.tag[193].nic  TagReceivedAcknowledgement  ETV
vector 1726  _01_RfidSim.tag[330].nic  TagReceivedAcknowledgement  ETV
vector 850  _01_RfidSim.tag[111].nic  TagReceivedAcknowledgement  ETV
vector 1174  _01_RfidSim.tag[192].nic  TagReceivedAcknowledgement  ETV
vector 1074  _01_RfidSim.tag[167].nic  TagReceivedAcknowledgement  ETV
vector 1650  _01_RfidSim.tag[311].nic  TagReceivedAcknowledgement  ETV
vector 1026  _01_RfidSim.tag[155].nic  TagReceivedAcknowledgement  ETV
vector 1310  _01_RfidSim.tag[226].nic  TagReceivedAcknowledgement  ETV
vector 1510  _01_RfidSim.tag[276].nic  TagReceivedAcknowledgement  ETV
vector 1222  _01_RfidSim.tag[204].nic  TagReceivedAcknowledgement  ETV
vector 1654  _01_RfidSim.tag[312].nic  TagReceivedAcknowledgement  ETV
vector 1250  _01_RfidSim.tag[211].nic  TagReceivedAcknowledgement  ETV
vector 446  _01_RfidSim.tag[10].nic  TagReceivedAcknowledgement  ETV
vector 1070  _01_RfidSim.tag[166].nic  TagReceivedAcknowledgement  ETV
vector 1578  _01_RfidSim.tag[293].nic  TagReceivedAcknowledgement  ETV
vector 1106  _01_RfidSim.tag[175].nic  TagReceivedAcknowledgement  ETV
vector 434  _01_RfidSim.tag[7].nic  TagReceivedAcknowledgement  ETV
vector 1406  _01_RfidSim.tag[250].nic  TagReceivedAcknowledgement  ETV
vector 590  _01_RfidSim.tag[46].nic  TagReceivedAcknowledgement  ETV
vector 1170  _01_RfidSim.tag[191].nic  TagReceivedAcknowledgement  ETV
vector 1298  _01_RfidSim.tag[223].nic  TagReceivedAcknowledgement  ETV
vector 1802  _01_RfidSim.tag[349].nic  TagReceivedAcknowledgement  ETV
vector 1330  _01_RfidSim.tag[231].nic  TagReceivedAcknowledgement  ETV
vector 846  _01_RfidSim.tag[110].nic  TagReceivedAcknowledgement  ETV
vector 1254  _01_RfidSim.tag[212].nic  TagReceivedAcknowledgement  ETV
vector 1458  _01_RfidSim.tag[263].nic  TagReceivedAcknowledgement  ETV
vector 1666  _01_RfidSim.tag[315].nic  TagReceivedAcknowledgement  ETV
vector 1402  _01_RfidSim.tag[249].nic  TagReceivedAcknowledgement  ETV
vector 1602  _01_RfidSim.tag[299].nic  TagReceivedAcknowledgement  ETV
vector 1658  _01_RfidSim.tag[313].nic  TagReceivedAcknowledgement  ETV
vector 874  _01_RfidSim.tag[117].nic  TagReceivedAcknowledgement  ETV
vector 514  _01_RfidSim.tag[27].nic  TagReceivedAcknowledgement  ETV
vector 1830  _01_RfidSim.tag[356].nic  TagReceivedAcknowledgement  ETV
vector 950  _01_RfidSim.tag[136].nic  TagReceivedAcknowledgement  ETV
vector 670  _01_RfidSim.tag[66].nic  TagReceivedAcknowledgement  ETV
vector 1502  _01_RfidSim.tag[274].nic  TagReceivedAcknowledgement  ETV
vector 918  _01_RfidSim.tag[128].nic  TagReceivedAcknowledgement  ETV
vector 1326  _01_RfidSim.tag[230].nic  TagReceivedAcknowledgement  ETV
vector 666  _01_RfidSim.tag[65].nic  TagReceivedAcknowledgement  ETV
vector 994  _01_RfidSim.tag[147].nic  TagReceivedAcknowledgement  ETV
vector 1818  _01_RfidSim.tag[353].nic  TagReceivedAcknowledgement  ETV
vector 1102  _01_RfidSim.tag[174].nic  TagReceivedAcknowledgement  ETV
vector 1582  _01_RfidSim.tag[294].nic  TagReceivedAcknowledgement  ETV
vector 510  _01_RfidSim.tag[26].nic  TagReceivedAcknowledgement  ETV
vector 1098  _01_RfidSim.tag[173].nic  TagReceivedAcknowledgement  ETV
vector 1226  _01_RfidSim.tag[205].nic  TagReceivedAcknowledgement  ETV
vector 1354  _01_RfidSim.tag[237].nic  TagReceivedAcknowledgement  ETV
vector 1454  _01_RfidSim.tag[262].nic  TagReceivedAcknowledgement  ETV
vector 942  _01_RfidSim.tag[134].nic  TagReceivedAcknowledgement  ETV
vector 450  _01_RfidSim.tag[11].nic  TagReceivedAcknowledgement  ETV
vector 998  _01_RfidSim.tag[148].nic  TagReceivedAcknowledgement  ETV
vector 1094  _01_RfidSim.tag[172].nic  TagReceivedAcknowledgement  ETV
vector 1274  _01_RfidSim.tag[217].nic  TagReceivedAcknowledgement  ETV
vector 1078  _01_RfidSim.tag[168].nic  TagReceivedAcknowledgement  ETV
vector 1246  _01_RfidSim.tag[210].nic  TagReceivedAcknowledgement  ETV
vector 526  _01_RfidSim.tag[30].nic  TagReceivedAcknowledgement  ETV
vector 1506  _01_RfidSim.tag[275].nic  TagReceivedAcknowledgement  ETV
vector 1146  _01_RfidSim.tag[185].nic  TagReceivedAcknowledgement  ETV
vector 1022  _01_RfidSim.tag[154].nic  TagReceivedAcknowledgement  ETV
vector 1206  _01_RfidSim.tag[200].nic  TagReceivedAcknowledgement  ETV
vector 1230  _01_RfidSim.tag[206].nic  TagReceivedAcknowledgement  ETV
vector 1258  _01_RfidSim.tag[213].nic  TagReceivedAcknowledgement  ETV
vector 1278  _01_RfidSim.tag[218].nic  TagReceivedAcknowledgement  ETV
vector 1082  _01_RfidSim.tag[169].nic  TagReceivedAcknowledgement  ETV
vector 1350  _01_RfidSim.tag[236].nic  TagReceivedAcknowledgement  ETV
vector 1158  _01_RfidSim.tag[188].nic  TagReceivedAcknowledgement  ETV
vector 794  _01_RfidSim.tag[97].nic  TagReceivedAcknowledgement  ETV
vector 1198  _01_RfidSim.tag[198].nic  TagReceivedAcknowledgement  ETV
vector 922  _01_RfidSim.tag[129].nic  TagReceivedAcknowledgement  ETV
vector 946  _01_RfidSim.tag[135].nic  TagReceivedAcknowledgement  ETV
vector 978  _01_RfidSim.tag[143].nic  TagReceivedAcknowledgement  ETV
vector 1006  _01_RfidSim.tag[150].nic  TagReceivedAcknowledgement  ETV
vector 1030  _01_RfidSim.tag[156].nic  TagReceivedAcknowledgement  ETV
vector 1126  _01_RfidSim.tag[180].nic  TagReceivedAcknowledgement  ETV
vector 1374  _01_RfidSim.tag[242].nic  TagReceivedAcknowledgement  ETV
vector 954  _01_RfidSim.tag[137].nic  TagReceivedAcknowledgement  ETV
vector 1202  _01_RfidSim.tag[199].nic  TagReceivedAcknowledgement  ETV
vector 1302  _01_RfidSim.tag[224].nic  TagReceivedAcknowledgement  ETV
vector 878  _01_RfidSim.tag[118].nic  TagReceivedAcknowledgement  ETV
vector 822  _01_RfidSim.tag[104].nic  TagReceivedAcknowledgement  ETV
vector 1154  _01_RfidSim.tag[187].nic  TagReceivedAcknowledgement  ETV
vector 598  _01_RfidSim.tag[48].nic  TagReceivedAcknowledgement  ETV
vector 1182  _01_RfidSim.tag[194].nic  TagReceivedAcknowledgement  ETV
vector 1378  _01_RfidSim.tag[243].nic  TagReceivedAcknowledgement  ETV
vector 1334  _01_RfidSim.tag[232].nic  TagReceivedAcknowledgement  ETV
vector 1054  _01_RfidSim.tag[162].nic  TagReceivedAcknowledgement  ETV
vector 1234  _01_RfidSim.tag[207].nic  TagReceivedAcknowledgement  ETV
vector 974  _01_RfidSim.tag[142].nic  TagReceivedAcknowledgement  ETV
vector 1046  _01_RfidSim.tag[160].nic  TagReceivedAcknowledgement  ETV
vector 1194  _01_RfidSim.tag[197].nic  TagReceivedAcknowledgement  ETV
vector 1042  _01_RfidSim.tag[159].nic  TagReceivedAcknowledgement  ETV
vector 970  _01_RfidSim.tag[141].nic  TagReceivedAcknowledgement  ETV
vector 894  _01_RfidSim.tag[122].nic  TagReceivedAcknowledgement  ETV
vector 1210  _01_RfidSim.tag[201].nic  TagReceivedAcknowledgement  ETV
vector 1134  _01_RfidSim.tag[182].nic  TagReceivedAcknowledgement  ETV
vector 1058  _01_RfidSim.tag[163].nic  TagReceivedAcknowledgement  ETV
vector 1358  _01_RfidSim.tag[238].nic  TagReceivedAcknowledgement  ETV
372	5947	0.002860073109	381
372	10704	0.00469420043	381
372	15291	0.00623420043	381
372	19847	0.00777420043	381
372	24428	0.00935420043	381
372	28792	0.01091420043	381
372	33521	0.01245420043	381
372	38645	0.01403420043	381
372	43846	0.01563420043	381
372	47833	0.01717420043	381
372	52158	0.01871420043	381
372	58115	0.02065420043	381
372	63166	0.02221420043	381
372	67354	0.02377420043	381
372	71707	0.02529420043	381
372	76728	0.02707420043	381
372	82271	0.02875420043	381
376	5580	0.002698841026	388
376	19531	0.007744516603	388
376	24618	0.009382424784	388
376	29240	0.010982424784	388
376	89331	0.032494425784	388
376	98484	0.035554425784	388
376	124380	0.044802427784	388
376	129641	0.046442427784	388
376	133087	0.048022427784	388
376	154145	0.055982427784	388
376	158255	0.057582427784	388
376	163456	0.059622427784	388
376	169350	0.061682427784	388
376	176280	0.064682427784	388
376	184482	0.067902427784	388
376	218154	0.082474424784	388
380	4616	0.002240362231	395
380	8564	0.003840362231	395
380	13558	0.005640362231	395
380	17910	0.007200362231	395
380	22584	0.008740362231	395
380	27320	0.010260362231	395
380	32186	0.011840362231	395
380	36932	0.013380362231	395
380	42075	0.014940362231	395
380	47100	0.016880362231	395
380	51677	0.018420362231	395
380	56500	0.019960362231	395
380	61272	0.021520362231	395
380	66060	0.023320362231	395
380	70667	0.024900362231	395
380	74969	0.026460362231	395
380	81134	0.028280362231	395
384	94711	0.03450690265	402
384	100197	0.03602690265	402
384	104848	0.03760690265	402
384	108723	0.03914690265	402
384	112692	0.04072690265	402
384	116899	0.04226690265	402
384	124016	0.04458290365	402
384	128777	0.04612290365	402
384	132501	0.04774290365	402
384	136929	0.04932290365	402
384	141270	0.05086290365	402
384	145275	0.05242290365	402
384	149000	0.05396290365	402
384	153113	0.05552290365	402
384	156532	0.05706290365	402
384	160408	0.05858290365	402
384	164760	0.06014290365	402
384	169592	0.06170290365	402
384	175515	0.06429890465	402
384	178900	0.06585890465	402
384	183184	0.06743890465	402
384	187454	0.06903890465	402
384	191624	0.07057890465	402
384	198351	0.07373890465	402
384	202691	0.07553890465	402