version 2
run Experiment9_81staticReaders_81TagsGrid-0-20150406-10:14:03-8144
attr configname Experiment9_81staticReaders_81TagsGrid
attr datetime 20150406-10:14:03
attr experiment Experiment9_81staticReaders_81TagsGrid
attr inifile omnetpp.ini
attr iterationvars ""
attr iterationvars2 $repetition=0
attr measurement ""
attr network _01_RfidSim
attr processid 8144
attr repetition 0
attr replication #0
attr resultdir results
attr runnumber 0
attr seedset 0

vector 810  _01_RfidSim.reader[0].nic.phy  RadioState  ETV
vector 811  _01_RfidSim.reader[0].nic.phy  RadioChannel  ETV
vector 812  _01_RfidSim.reader[1].nic.phy  RadioState  ETV
vector 813  _01_RfidSim.reader[1].nic.phy  RadioChannel  ETV
vector 814  _01_RfidSim.reader[2].nic.phy  RadioState  ETV
vector 815  _01_RfidSim.reader[2].nic.phy  RadioChannel  ETV
vector 816  _01_RfidSim.reader[3].nic.phy  RadioState  ETV
vector 817  _01_RfidSim.reader[3].nic.phy  RadioChannel  ETV
vector 818  _01_RfidSim.reader[4].nic.phy  RadioState  ETV
vector 819  _01_RfidSim.reader[4].nic.phy  RadioChannel  ETV
vector 820  _01_RfidSim.reader[5].nic.phy  RadioState  ETV
vector 821  _01_RfidSim.reader[5].nic.phy  RadioChannel  ETV
vector 822  _01_RfidSim.reader[6].nic.phy  RadioState  ETV
vector 823  _01_RfidSim.reader[6].nic.phy  RadioChannel  ETV
vector 824  _01_RfidSim.reader[7].nic.phy  RadioState  ETV
vector 825  _01_RfidSim.reader[7].nic.phy  RadioChannel  ETV
vector 826  _01_RfidSim.reader[8].nic.phy  RadioState  ETV
vector 827  _01_RfidSim.reader[8].nic.phy  RadioChannel  ETV
vector 828  _01_RfidSim.reader[9].nic.phy  RadioState  ETV
vector 829  _01_RfidSim.reader[9].nic.phy  RadioChannel  ETV
vector 830  _01_RfidSim.reader[10].nic.phy  RadioState  ETV
vector 831  _01_RfidSim.reader[10].nic.phy  RadioChannel  ETV
vector 832  _01_RfidSim.reader[11].nic.phy  RadioState  ETV
vector 833  _01_RfidSim.reader[11].nic.phy  RadioChannel  ETV
vector 834  _01_RfidSim.reader[12].nic.phy  RadioState  ETV
vector 835  _01_RfidSim.reader[12].nic.phy  RadioChannel  ETV
vector 836  _01_RfidSim.reader[13].nic.phy  RadioState  ETV
vector 837  _01_RfidSim.reader[13].nic.phy  RadioChannel  ETV
vector 838  _01_RfidSim.reader[14].nic.phy  RadioState  ETV
vector 839  _01_RfidSim.reader[14].nic.phy  RadioChannel  ETV
vector 840  _01_RfidSim.reader[15].nic.phy  RadioState  ETV
vector 841  _01_RfidSim.reader[15].nic.phy  RadioChannel  ETV
vector 842  _01_RfidSim.reader[16].nic.phy  RadioState  ETV
vector 843  _01_RfidSim.reader[16].nic.phy  RadioChannel  ETV
vector 844  _01_RfidSim.reader[17].nic.phy  RadioState  ETV
vector 845  _01_RfidSim.reader[17].nic.phy  RadioChannel  ETV
vector 846  _01_RfidSim.reader[18].nic.phy  RadioState  ETV
vector 847  _01_RfidSim.reader[18].nic.phy  RadioChannel  ETV
vector 848  _01_RfidSim.reader[19].nic.phy  RadioState  ETV
vector 849  _01_RfidSim.reader[19].nic.phy  RadioChannel  ETV
vector 850  _01_RfidSim.reader[20].nic.phy  RadioState  ETV
vector 851  _01_RfidSim.reader[20].nic.phy  RadioChannel  ETV
vector 852  _01_RfidSim.reader[21].nic.phy  RadioState  ETV
vector 853  _01_RfidSim.reader[21].nic.phy  RadioChannel  ETV
vector 854  _01_RfidSim.reader[22].nic.phy  RadioState  ETV
vector 855  _01_RfidSim.reader[22].nic.phy  RadioChannel  ETV
vector 856  _01_RfidSim.reader[23].nic.phy  RadioState  ETV
vector 857  _01_RfidSim.reader[23].nic.phy  RadioChannel  ETV
vector 858  _01_RfidSim.reader[24].nic.phy  RadioState  ETV
vector 859  _01_RfidSim.reader[24].nic.phy  RadioChannel  ETV
vector 860  _01_RfidSim.reader[25].nic.phy  RadioState  ETV
vector 861  _01_RfidSim.reader[25].nic.phy  RadioChannel  ETV
vector 862  _01_RfidSim.reader[26].nic.phy  RadioState  ETV
vector 863  _01_RfidSim.reader[26].nic.phy  RadioChannel  ETV
vector 864  _01_RfidSim.reader[27].nic.phy  RadioState  ETV
vector 865  _01_RfidSim.reader[27].nic.phy  RadioChannel  ETV
vector 866  _01_RfidSim.reader[28].nic.phy  RadioState  ETV
vector 867  _01_RfidSim.reader[28].nic.phy  RadioChannel  ETV
vector 868  _01_RfidSim.reader[29].nic.phy  RadioState  ETV
vector 869  _01_RfidSim.reader[29].nic.phy  RadioChannel  ETV
vector 870  _01_RfidSim.reader[30].nic.phy  RadioState  ETV
vector 871  _01_RfidSim.reader[30].nic.phy  RadioChannel  ETV
vector 872  _01_RfidSim.reader[31].nic.phy  RadioState  ETV
vector 873  _01_RfidSim.reader[31].nic.phy  RadioChannel  ETV
vector 874  _01_RfidSim.reader[32].nic.phy  RadioState  ETV
vector 875  _01_RfidSim.reader[32].nic.phy  RadioChannel  ETV
vector 876  _01_RfidSim.reader[33].nic.phy  RadioState  ETV
vector 877  _01_RfidSim.reader[33].nic.phy  RadioChannel  ETV
vector 878  _01_RfidSim.reader[34].nic.phy  RadioState  ETV
vector 879  _01_RfidSim.reader[34].nic.phy  RadioChannel  ETV
vector 880  _01_RfidSim.reader[35].nic.phy  RadioState  ETV
vector 881  _01_RfidSim.reader[35].nic.phy  RadioChannel  ETV
vector 882  _01_RfidSim.reader[36].nic.phy  RadioState  ETV
vector 883  _01_RfidSim.reader[36].nic.phy  RadioChannel  ETV
vector 884  _01_RfidSim.reader[37].nic.phy  RadioState  ETV
vector 885  _01_RfidSim.reader[37].nic.phy  RadioChannel  ETV
vector 886  _01_RfidSim.reader[38].nic.phy  RadioState  ETV
vector 887  _01_RfidSim.reader[38].nic.phy  RadioChannel  ETV
vector 888  _01_RfidSim.reader[39].nic.phy  RadioState  ETV
vector 889  _01_RfidSim.reader[39].nic.phy  RadioChannel  ETV
vector 890  _01_RfidSim.reader[40].nic.phy  RadioState  ETV
vector 891  _01_RfidSim.reader[40].nic.phy  RadioChannel  ETV
vector 892  _01_RfidSim.reader[41].nic.phy  RadioState  ETV
vector 893  _01_RfidSim.reader[41].nic.phy  RadioChannel  ETV
vector 894  _01_RfidSim.reader[42].nic.phy  RadioState  ETV
vector 895  _01_RfidSim.reader[42].nic.phy  RadioChannel  ETV
vector 896  _01_RfidSim.reader[43].nic.phy  RadioState  ETV
vector 897  _01_RfidSim.reader[43].nic.phy  RadioChannel  ETV
vector 898  _01_RfidSim.reader[44].nic.phy  RadioState  ETV
vector 899  _01_RfidSim.reader[44].nic.phy  RadioChannel  ETV
vector 900  _01_RfidSim.reader[45].nic.phy  RadioState  ETV
vector 901  _01_RfidSim.reader[45].nic.phy  RadioChannel  ETV
vector 902  _01_RfidSim.reader[46].nic.phy  RadioState  ETV
vector 903  _01_RfidSim.reader[46].nic.phy  RadioChannel  ETV
vector 904  _01_RfidSim.reader[47].nic.phy  RadioState  ETV
vector 905  _01_RfidSim.reader[47].nic.phy  RadioChannel  ETV
vector 906  _01_RfidSim.reader[48].nic.phy  RadioState  ETV
vector 907  _01_RfidSim.reader[48].nic.phy  RadioChannel  ETV
vector 908  _01_RfidSim.reader[49].nic.phy  RadioState  ETV
vector 909  _01_RfidSim.reader[49].nic.phy  RadioChannel  ETV
vector 910  _01_RfidSim.reader[50].nic.phy  RadioState  ETV
vector 911  _01_RfidSim.reader[50].nic.phy  RadioChannel  ETV
vector 912  _01_RfidSim.reader[51].nic.phy  RadioState  ETV
vector 913  _01_RfidSim.reader[51].nic.phy  RadioChannel  ETV
vector 914  _01_RfidSim.reader[52].nic.phy  RadioState  ETV
vector 915  _01_RfidSim.reader[52].nic.phy  RadioChannel  ETV
vector 916  _01_RfidSim.reader[53].nic.phy  RadioState  ETV
vector 917  _01_RfidSim.reader[53].nic.phy  RadioChannel  ETV
vector 918  _01_RfidSim.reader[54].nic.phy  RadioState  ETV
vector 919  _01_RfidSim.reader[54].nic.phy  RadioChannel  ETV
vector 920  _01_RfidSim.reader[55].nic.phy  RadioState  ETV
vector 921  _01_RfidSim.reader[55].nic.phy  RadioChannel  ETV
vector 922  _01_RfidSim.reader[56].nic.phy  RadioState  ETV
vector 923  _01_RfidSim.reader[56].nic.phy  RadioChannel  ETV
vector 924  _01_RfidSim.reader[57].nic.phy  RadioState  ETV
vector 925  _01_RfidSim.reader[57].nic.phy  RadioChannel  ETV
vector 926  _01_RfidSim.reader[58].nic.phy  RadioState  ETV
vector 927  _01_RfidSim.reader[58].nic.phy  RadioChannel  ETV
vector 928  _01_RfidSim.reader[59].nic.phy  RadioState  ETV
vector 929  _01_RfidSim.reader[59].nic.phy  RadioChannel  ETV
vector 930  _01_RfidSim.reader[60].nic.phy  RadioState  ETV
vector 931  _01_RfidSim.reader[60].nic.phy  RadioChannel  ETV
vector 932  _01_RfidSim.reader[61].nic.phy  RadioState  ETV
vector 933  _01_RfidSim.reader[61].nic.phy  RadioChannel  ETV
vector 934  _01_RfidSim.reader[62].nic.phy  RadioState  ETV
vector 935  _01_RfidSim.reader[62].nic.phy  RadioChannel  ETV
vector 936  _01_RfidSim.reader[63].nic.phy  RadioState  ETV
vector 937  _01_RfidSim.reader[63].nic.phy  RadioChannel  ETV
vector 938  _01_RfidSim.reader[64].nic.phy  RadioState  ETV
vector 939  _01_RfidSim.reader[64].nic.phy  RadioChannel  ETV
vector 940  _01_RfidSim.reader[65].nic.phy  RadioState  ETV
vector 941  _01_RfidSim.reader[65].nic.phy  RadioChannel  ETV
vector 942  _01_RfidSim.reader[66].nic.phy  RadioState  ETV
vector 943  _01_RfidSim.reader[66].nic.phy  RadioChannel  ETV
vector 944  _01_RfidSim.reader[67].nic.phy  RadioState  ETV
vector 945  _01_RfidSim.reader[67].nic.phy  RadioChannel  ETV
vector 946  _01_RfidSim.reader[68].nic.phy  RadioState  ETV
vector 947  _01_RfidSim.reader[68].nic.phy  RadioChannel  ETV
vector 948  _01_RfidSim.reader[69].nic.phy  RadioState  ETV
vector 949  _01_RfidSim.reader[69].nic.phy  RadioChannel  ETV
vector 950  _01_RfidSim.reader[70].nic.phy  RadioState  ETV
vector 951  _01_RfidSim.reader[70].nic.phy  RadioChannel  ETV
vector 952  _01_RfidSim.reader[71].nic.phy  RadioState  ETV
vector 953  _01_RfidSim.reader[71].nic.phy  RadioChannel  ETV
vector 954  _01_RfidSim.reader[72].nic.phy  RadioState  ETV
vector 955  _01_RfidSim.reader[72].nic.phy  RadioChannel  ETV
vector 956  _01_RfidSim.reader[73].nic.phy  RadioState  ETV
vector 957  _01_RfidSim.reader[73].nic.phy  RadioChannel  ETV
vector 958  _01_RfidSim.reader[74].nic.phy  RadioState  ETV
vector 959  _01_RfidSim.reader[74].nic.phy  RadioChannel  ETV
vector 960  _01_RfidSim.reader[75].nic.phy  RadioState  ETV
vector 961  _01_RfidSim.reader[75].nic.phy  RadioChannel  ETV
vector 962  _01_RfidSim.reader[76].nic.phy  RadioState  ETV
vector 963  _01_RfidSim.reader[76].nic.phy  RadioChannel  ETV
vector 964  _01_RfidSim.reader[77].nic.phy  RadioState  ETV
vector 965  _01_RfidSim.reader[77].nic.phy  RadioChannel  ETV
vector 966  _01_RfidSim.reader[78].nic.phy  RadioState  ETV
vector 967  _01_RfidSim.reader[78].nic.phy  RadioChannel  ETV
vector 968  _01_RfidSim.reader[79].nic.phy  RadioState  ETV
vector 969  _01_RfidSim.reader[79].nic.phy  RadioChannel  ETV
vector 970  _01_RfidSim.reader[80].nic.phy  RadioState  ETV
vector 971  _01_RfidSim.reader[80].nic.phy  RadioChannel  ETV
vector 183  _01_RfidSim.reader[5].nic  TagReceivedQuery  ETV
vector 187  _01_RfidSim.reader[6].nic  TagReceivedQuery  ETV
vector 191  _01_RfidSim.reader[7].nic  TagReceivedQuery  ETV
vector 219  _01_RfidSim.reader[14].nic  TagReceivedQuery  ETV
vector 223  _01_RfidSim.reader[15].nic  TagReceivedQuery  ETV
vector 227  _01_RfidSim.reader[16].nic  TagReceivedQuery  ETV
vector 251  _01_RfidSim.reader[22].nic  TagReceivedQuery  ETV
vector 255  _01_RfidSim.reader[23].nic  TagReceivedQuery  ETV
vector 263  _01_RfidSim.reader[25].nic  TagReceivedQuery  ETV
vector 287  _01_RfidSim.reader[31].nic  TagReceivedQuery  ETV
vector 291  _01_RfidSim.reader[32].nic  TagReceivedQuery  ETV
vector 295  _01_RfidSim.reader[33].nic  TagReceivedQuery  ETV
vector 299  _01_RfidSim.reader[34].nic  TagReceivedQuery  ETV
vector 323  _01_RfidSim.reader[40].nic  TagReceivedQuery  ETV
vector 327  _01_RfidSim.reader[41].nic  TagReceivedQuery  ETV
vector 331  _01_RfidSim.reader[42].nic  TagReceivedQuery  ETV
vector 335  _01_RfidSim.reader[43].nic  TagReceivedQuery  ETV
vector 507  _01_RfidSim.tag[5].nic  TagReceivedQuery  ETV
vector 511  _01_RfidSim.tag[6].nic  TagReceivedQuery  ETV
vector 543  _01_RfidSim.tag[14].nic  TagReceivedQuery  ETV
vector 547  _01_RfidSim.tag[15].nic  TagReceivedQuery  ETV
vector 579  _01_RfidSim.tag[23].nic  TagReceivedQuery  ETV
vector 583  _01_RfidSim.tag[24].nic  TagReceivedQuery  ETV
vector 615  _01_RfidSim.tag[32].nic  TagReceivedQuery  ETV
vector 619  _01_RfidSim.tag[33].nic  TagReceivedQuery  ETV
vector 515  _01_RfidSim.tag[7].nic  TagReceivedQuery  ETV
vector 551  _01_RfidSim.tag[16].nic  TagReceivedQuery  ETV
vector 587  _01_RfidSim.tag[25].nic  TagReceivedQuery  ETV
vector 591  _01_RfidSim.tag[26].nic  TagReceivedQuery  ETV
vector 623  _01_RfidSim.tag[34].nic  TagReceivedQuery  ETV
vector 319  _01_RfidSim.reader[39].nic  TagReceivedQuery  ETV
vector 355  _01_RfidSim.reader[48].nic  TagReceivedQuery  ETV
vector 359  _01_RfidSim.reader[49].nic  TagReceivedQuery  ETV
vector 391  _01_RfidSim.reader[57].nic  TagReceivedQuery  ETV
vector 395  _01_RfidSim.reader[58].nic  TagReceivedQuery  ETV
vector 403  _01_RfidSim.reader[60].nic  TagReceivedQuery  ETV
vector 427  _01_RfidSim.reader[66].nic  TagReceivedQuery  ETV
vector 431  _01_RfidSim.reader[67].nic  TagReceivedQuery  ETV
vector 435  _01_RfidSim.reader[68].nic  TagReceivedQuery  ETV
vector 439  _01_RfidSim.reader[69].nic  TagReceivedQuery  ETV
vector 463  _01_RfidSim.reader[75].nic  TagReceivedQuery  ETV
vector 467  _01_RfidSim.reader[76].nic  TagReceivedQuery  ETV
vector 471  _01_RfidSim.reader[77].nic  TagReceivedQuery  ETV
vector 475  _01_RfidSim.reader[78].nic  TagReceivedQuery  ETV
vector 683  _01_RfidSim.tag[49].nic  TagReceivedQuery  ETV
vector 687  _01_RfidSim.tag[50].nic  TagReceivedQuery  ETV
vector 719  _01_RfidSim.tag[58].nic  TagReceivedQuery  ETV
vector 723  _01_RfidSim.tag[59].nic  TagReceivedQuery  ETV
vector 755  _01_RfidSim.tag[67].nic  TagReceivedQuery  ETV
vector 759  _01_RfidSim.tag[68].nic  TagReceivedQuery  ETV
vector 795  _01_RfidSim.tag[77].nic  TagReceivedQuery  ETV
vector 167  _01_RfidSim.reader[1].nic  TagReceivedQuery  ETV
vector 199  _01_RfidSim.reader[9].nic  TagReceivedQuery  ETV
vector 203  _01_RfidSim.reader[10].nic  TagReceivedQuery  ETV
vector 235  _01_RfidSim.reader[18].nic  TagReceivedQuery  ETV
vector 239  _01_RfidSim.reader[19].nic  TagReceivedQuery  ETV
vector 271  _01_RfidSim.reader[27].nic  TagReceivedQuery  ETV
vector 275  _01_RfidSim.reader[28].nic  TagReceivedQuery  ETV
vector 487  _01_RfidSim.tag[0].nic  TagReceivedQuery  ETV
vector 491  _01_RfidSim.tag[1].nic  TagReceivedQuery  ETV
vector 495  _01_RfidSim.tag[2].nic  TagReceivedQuery  ETV
vector 527  _01_RfidSim.tag[10].nic  TagReceivedQuery  ETV
vector 211  _01_RfidSim.reader[12].nic  TagReceivedQuery  ETV
vector 247  _01_RfidSim.reader[21].nic  TagReceivedQuery  ETV
vector 279  _01_RfidSim.reader[29].nic  TagReceivedQuery  ETV
vector 499  _01_RfidSim.tag[3].nic  TagReceivedQuery  ETV
vector 503  _01_RfidSim.tag[4].nic  TagReceivedQuery  ETV
vector 535  _01_RfidSim.tag[12].nic  TagReceivedQuery  ETV
vector 539  _01_RfidSim.tag[13].nic  TagReceivedQuery  ETV
vector 307  _01_RfidSim.reader[36].nic  TagReceivedQuery  ETV
vector 311  _01_RfidSim.reader[37].nic  TagReceivedQuery  ETV
vector 315  _01_RfidSim.reader[38].nic  TagReceivedQuery  ETV
vector 343  _01_RfidSim.reader[45].nic  TagReceivedQuery  ETV
vector 347  _01_RfidSim.reader[46].nic  TagReceivedQuery  ETV
vector 351  _01_RfidSim.reader[47].nic  TagReceivedQuery  ETV
vector 379  _01_RfidSim.reader[54].nic  TagReceivedQuery  ETV
vector 387  _01_RfidSim.reader[56].nic  TagReceivedQuery  ETV
vector 415  _01_RfidSim.reader[63].nic  TagReceivedQuery  ETV
vector 419  _01_RfidSim.reader[64].nic  TagReceivedQuery  ETV
vector 423  _01_RfidSim.reader[65].nic  TagReceivedQuery  ETV
vector 451  _01_RfidSim.reader[72].nic  TagReceivedQuery  ETV
vector 455  _01_RfidSim.reader[73].nic  TagReceivedQuery  ETV
vector 459  _01_RfidSim.reader[74].nic  TagReceivedQuery  ETV
vector 671  _01_RfidSim.tag[46].nic  TagReceivedQuery  ETV
vector 675  _01_RfidSim.tag[47].nic  TagReceivedQuery  ETV
vector 707  _01_RfidSim.tag[55].nic  TagReceivedQuery  ETV
vector 711  _01_RfidSim.tag[56].nic  TagReceivedQuery  ETV
vector 743  _01_RfidSim.tag[64].nic  TagReceivedQuery  ETV
vector 747  _01_RfidSim.tag[65].nic  TagReceivedQuery  ETV
vector 783  _01_RfidSim.tag[74].nic  TagReceivedQuery  ETV
vector 411  _01_RfidSim.reader[62].nic  TagReceivedQuery  ETV
vector 483  _01_RfidSim.reader[80].nic  TagReceivedQuery  ETV
vector 731  _01_RfidSim.tag[61].nic  TagReceivedQuery  ETV
vector 763  _01_RfidSim.tag[69].nic  TagReceivedQuery  ETV
vector 767  _01_RfidSim.tag[70].nic  TagReceivedQuery  ETV
vector 771  _01_RfidSim.tag[71].nic  TagReceivedQuery  ETV
vector 799  _01_RfidSim.tag[78].nic  TagReceivedQuery  ETV
vector 803  _01_RfidSim.tag[79].nic  TagReceivedQuery  ETV
vector 807  _01_RfidSim.tag[80].nic  TagReceivedQuery  ETV
vector 179  _01_RfidSim.reader[4].nic  TagReceivedQuery  ETV
vector 195  _01_RfidSim.reader[8].nic  TagReceivedQuery  ETV
vector 231  _01_RfidSim.reader[17].nic  TagReceivedQuery  ETV
vector 267  _01_RfidSim.reader[26].nic  TagReceivedQuery  ETV
vector 303  _01_RfidSim.reader[35].nic  TagReceivedQuery  ETV
vector 163  _01_RfidSim.reader[0].nic  TagReceivedQuery  ETV
vector 207  _01_RfidSim.reader[11].nic  TagReceivedQuery  ETV
vector 243  _01_RfidSim.reader[20].nic  TagReceivedQuery  ETV
vector 383  _01_RfidSim.reader[55].nic  TagReceivedQuery  ETV
vector 563  _01_RfidSim.tag[19].nic  TagReceivedQuery  ETV
vector 595  _01_RfidSim.tag[27].nic  TagReceivedQuery  ETV
vector 599  _01_RfidSim.tag[28].nic  TagReceivedQuery  ETV
vector 603  _01_RfidSim.tag[29].nic  TagReceivedQuery  ETV
vector 635  _01_RfidSim.tag[37].nic  TagReceivedQuery  ETV
vector 339  _01_RfidSim.reader[44].nic  TagReceivedQuery  ETV
vector 375  _01_RfidSim.reader[53].nic  TagReceivedQuery  ETV
vector 407  _01_RfidSim.reader[61].nic  TagReceivedQuery  ETV
vector 443  _01_RfidSim.reader[70].nic  TagReceivedQuery  ETV
vector 447  _01_RfidSim.reader[71].nic  TagReceivedQuery  ETV
vector 479  _01_RfidSim.reader[79].nic  TagReceivedQuery  ETV
vector 695  _01_RfidSim.tag[52].nic  TagReceivedQuery  ETV
vector 727  _01_RfidSim.tag[60].nic  TagReceivedQuery  ETV
vector 735  _01_RfidSim.tag[62].nic  TagReceivedQuery  ETV
vector 775  _01_RfidSim.tag[72].nic  TagReceivedQuery  ETV
vector 779  _01_RfidSim.tag[73].nic  TagReceivedQuery  ETV
vector 215  _01_RfidSim.reader[13].nic  TagReceivedQuery  ETV
vector 259  _01_RfidSim.reader[24].nic  TagReceivedQuery  ETV
vector 171  _01_RfidSim.reader[2].nic  TagReceivedQuery  ETV
vector 175  _01_RfidSim.reader[3].nic  TagReceivedQuery  ETV
vector 283  _01_RfidSim.reader[30].nic  TagReceivedQuery  ETV
vector 531  _01_RfidSim.tag[11].nic  TagReceivedQuery  ETV
vector 567  _01_RfidSim.tag[20].nic  TagReceivedQuery  ETV
vector 363  _01_RfidSim.reader[50].nic  TagReceivedQuery  ETV
vector 367  _01_RfidSim.reader[51].nic  TagReceivedQuery  ETV
vector 371  _01_RfidSim.reader[52].nic  TagReceivedQuery  ETV
vector 399  _01_RfidSim.reader[59].nic  TagReceivedQuery  ETV
vector 691  _01_RfidSim.tag[51].nic  TagReceivedQuery  ETV
vector 739  _01_RfidSim.tag[63].nic  TagReceivedQuery  ETV
vector 575  _01_RfidSim.tag[22].nic  TagReceivedQuery  ETV
vector 559  _01_RfidSim.tag[18].nic  TagReceivedQuery  ETV
vector 519  _01_RfidSim.tag[8].nic  TagReceivedQuery  ETV
vector 523  _01_RfidSim.tag[9].nic  TagReceivedQuery  ETV
vector 787  _01_RfidSim.tag[75].nic  TagReceivedQuery  ETV
vector 791  _01_RfidSim.tag[76].nic  TagReceivedQuery  ETV
vector 555  _01_RfidSim.tag[17].nic  TagReceivedQuery  ETV
vector 412  _01_RfidSim.reader[62].nic  ReaderSendAcknowledgement  ETV
vector 726  _01_RfidSim.tag[60].nic  TagReceivedAcknowledgement  ETV
vector 176  _01_RfidSim.reader[3].nic  ReaderSendAcknowledgement  ETV
vector 502  _01_RfidSim.tag[4].nic  TagReceivedAcknowledgement  ETV
vector 655  _01_RfidSim.tag[42].nic  TagReceivedQuery  ETV
vector 659  _01_RfidSim.tag[43].nic  TagReceivedQuery  ETV
vector 452  _01_RfidSim.reader[72].nic  ReaderSendAcknowledgement  ETV
vector 715  _01_RfidSim.tag[57].nic  TagReceivedQuery  ETV
vector 751  _01_RfidSim.tag[66].nic  TagReceivedQuery  ETV
vector 778  _01_RfidSim.tag[73].nic  TagReceivedAcknowledgement  ETV
vector 236  _01_RfidSim.reader[18].nic  ReaderSendAcknowledgement  ETV
vector 571  _01_RfidSim.tag[21].nic  TagReceivedQuery  ETV
vector 562  _01_RfidSim.tag[19].nic  TagReceivedAcknowledgement  ETV
vector 627  _01_RfidSim.tag[35].nic  TagReceivedQuery  ETV
vector 396  _01_RfidSim.reader[58].nic  ReaderSendAcknowledgement  ETV
vector 718  _01_RfidSim.tag[58].nic  TagReceivedAcknowledgement  ETV
vector 272  _01_RfidSim.reader[27].nic  ReaderSendAcknowledgement  ETV
vector 602  _01_RfidSim.tag[29].nic  TagReceivedAcknowledgement  ETV
vector 196  _01_RfidSim.reader[8].nic  ReaderSendAcknowledgement  ETV
vector 384  _01_RfidSim.reader[55].nic  ReaderSendAcknowledgement  ETV
vector 518  _01_RfidSim.tag[8].nic  TagReceivedAcknowledgement  ETV
vector 670  _01_RfidSim.tag[46].nic  TagReceivedAcknowledgement  ETV
vector 164  _01_RfidSim.reader[0].nic  ReaderSendAcknowledgement  ETV
vector 703  _01_RfidSim.tag[54].nic  TagReceivedQuery  ETV
vector 490  _01_RfidSim.tag[1].nic  TagReceivedAcknowledgement  ETV
vector 448  _01_RfidSim.reader[71].nic  ReaderSendAcknowledgement  ETV
vector 232  _01_RfidSim.reader[17].nic  ReaderSendAcknowledgement  ETV
vector 180  _01_RfidSim.reader[4].nic  ReaderSendAcknowledgement  ETV
vector 770  _01_RfidSim.tag[71].nic  TagReceivedAcknowledgement  ETV
vector 554  _01_RfidSim.tag[17].nic  TagReceivedAcknowledgement  ETV
vector 538  _01_RfidSim.tag[13].nic  TagReceivedAcknowledgement  ETV
vector 200  _01_RfidSim.reader[9].nic  ReaderSendAcknowledgement  ETV
vector 522  _01_RfidSim.tag[9].nic  TagReceivedAcknowledgement  ETV
vector 224  _01_RfidSim.reader[15].nic  ReaderSendAcknowledgement  ETV
vector 542  _01_RfidSim.tag[14].nic  TagReceivedAcknowledgement  ETV
vector 607  _01_RfidSim.tag[30].nic  TagReceivedQuery  ETV
vector 611  _01_RfidSim.tag[31].nic  TagReceivedQuery  ETV
vector 420  _01_RfidSim.reader[64].nic  ReaderSendAcknowledgement  ETV
vector 782  _01_RfidSim.tag[74].nic  TagReceivedAcknowledgement  ETV
vector 802  _01_RfidSim.tag[79].nic  TagReceivedAcknowledgement  ETV
vector 188  _01_RfidSim.reader[6].nic  ReaderSendAcknowledgement  ETV
vector 506  _01_RfidSim.tag[5].nic  TagReceivedAcknowledgement  ETV
vector 710  _01_RfidSim.tag[56].nic  TagReceivedAcknowledgement  ETV
vector 260  _01_RfidSim.reader[24].nic  ReaderSendAcknowledgement  ETV
vector 582  _01_RfidSim.tag[24].nic  TagReceivedAcknowledgement  ETV
vector 663  _01_RfidSim.tag[44].nic  TagReceivedQuery  ETV
vector 400  _01_RfidSim.reader[59].nic  ReaderSendAcknowledgement  ETV
vector 240  _01_RfidSim.reader[19].nic  ReaderSendAcknowledgement  ETV
vector 754  _01_RfidSim.tag[67].nic  TagReceivedAcknowledgement  ETV
vector 530  _01_RfidSim.tag[11].nic  TagReceivedAcknowledgement  ETV
vector 586  _01_RfidSim.tag[25].nic  TagReceivedAcknowledgement  ETV
vector 534  _01_RfidSim.tag[12].nic  TagReceivedAcknowledgement  ETV
vector 264  _01_RfidSim.reader[25].nic  ReaderSendAcknowledgement  ETV
vector 498  _01_RfidSim.tag[3].nic  TagReceivedAcknowledgement  ETV
vector 643  _01_RfidSim.tag[39].nic  TagReceivedQuery  ETV
vector 647  _01_RfidSim.tag[40].nic  TagReceivedQuery  ETV
vector 679  _01_RfidSim.tag[48].nic  TagReceivedQuery  ETV
vector 667  _01_RfidSim.tag[45].nic  TagReceivedQuery  ETV
vector 212  _01_RfidSim.reader[12].nic  ReaderSendAcknowledgement  ETV
vector 380  _01_RfidSim.reader[54].nic  ReaderSendAcknowledgement  ETV
vector 570  _01_RfidSim.tag[21].nic  TagReceivedAcknowledgement  ETV
vector 372  _01_RfidSim.reader[52].nic  ReaderSendAcknowledgement  ETV
vector 690  _01_RfidSim.tag[51].nic  TagReceivedAcknowledgement  ETV
vector 651  _01_RfidSim.tag[41].nic  TagReceivedQuery  ETV
vector 244  _01_RfidSim.reader[20].nic  ReaderSendAcknowledgement  ETV
vector 706  _01_RfidSim.tag[55].nic  TagReceivedAcknowledgement  ETV
vector 699  _01_RfidSim.tag[53].nic  TagReceivedQuery  ETV
vector 526  _01_RfidSim.tag[10].nic  TagReceivedAcknowledgement  ETV
vector 746  _01_RfidSim.tag[65].nic  TagReceivedAcknowledgement  ETV
vector 798  _01_RfidSim.tag[78].nic  TagReceivedAcknowledgement  ETV
vector 639  _01_RfidSim.tag[38].nic  TagReceivedQuery  ETV
vector 220  _01_RfidSim.reader[14].nic  ReaderSendAcknowledgement  ETV
vector 566  _01_RfidSim.tag[20].nic  TagReceivedAcknowledgement  ETV
vector 750  _01_RfidSim.tag[66].nic  TagReceivedAcknowledgement  ETV
vector 304  _01_RfidSim.reader[35].nic  ReaderSendAcknowledgement  ETV
vector 626  _01_RfidSim.tag[35].nic  TagReceivedAcknowledgement  ETV
vector 256  _01_RfidSim.reader[23].nic  ReaderSendAcknowledgement  ETV
vector 494  _01_RfidSim.tag[2].nic  TagReceivedAcknowledgement  ETV
vector 340  _01_RfidSim.reader[44].nic  ReaderSendAcknowledgement  ETV
vector 662  _01_RfidSim.tag[44].nic  TagReceivedAcknowledgement  ETV
vector 790  _01_RfidSim.tag[76].nic  TagReceivedAcknowledgement  ETV
vector 598  _01_RfidSim.tag[28].nic  TagReceivedAcknowledgement  ETV
vector 774  _01_RfidSim.tag[72].nic  TagReceivedAcknowledgement  ETV
vector 730  _01_RfidSim.tag[61].nic  TagReceivedAcknowledgement  ETV
vector 742  _01_RfidSim.tag[64].nic  TagReceivedAcknowledgement  ETV
vector 734  _01_RfidSim.tag[62].nic  TagReceivedAcknowledgement  ETV
vector 510  _01_RfidSim.tag[6].nic  TagReceivedAcknowledgement  ETV
vector 268  _01_RfidSim.reader[26].nic  ReaderSendAcknowledgement  ETV
vector 550  _01_RfidSim.tag[16].nic  TagReceivedAcknowledgement  ETV
vector 228  _01_RfidSim.reader[16].nic  ReaderSendAcknowledgement  ETV
vector 352  _01_RfidSim.reader[47].nic  ReaderSendAcknowledgement  ETV
vector 638  _01_RfidSim.tag[38].nic  TagReceivedAcknowledgement  ETV
vector 344  _01_RfidSim.reader[45].nic  ReaderSendAcknowledgement  ETV
vector 654  _01_RfidSim.tag[42].nic  TagReceivedAcknowledgement  ETV
vector 631  _01_RfidSim.tag[36].nic  TagReceivedQuery  ETV
vector 622  _01_RfidSim.tag[34].nic  TagReceivedAcknowledgement  ETV
vector 634  _01_RfidSim.tag[37].nic  TagReceivedAcknowledgement  ETV
vector 666  _01_RfidSim.tag[45].nic  TagReceivedAcknowledgement  ETV
vector 216  _01_RfidSim.reader[13].nic  ReaderSendAcknowledgement  ETV
vector 428  _01_RfidSim.reader[66].nic  ReaderSendAcknowledgement  ETV
vector 280  _01_RfidSim.reader[29].nic  ReaderSendAcknowledgement  ETV
vector 456  _01_RfidSim.reader[73].nic  ReaderSendAcknowledgement  ETV
vector 276  _01_RfidSim.reader[28].nic  ReaderSendAcknowledgement  ETV
vector 308  _01_RfidSim.reader[36].nic  ReaderSendAcknowledgement  ETV
vector 296  _01_RfidSim.reader[33].nic  ReaderSendAcknowledgement  ETV
vector 558  _01_RfidSim.tag[18].nic  TagReceivedAcknowledgement  ETV
vector 722  _01_RfidSim.tag[59].nic  TagReceivedAcknowledgement  ETV
vector 368  _01_RfidSim.reader[51].nic  ReaderSendAcknowledgement  ETV
vector 650  _01_RfidSim.tag[41].nic  TagReceivedAcknowledgement  ETV
vector 486  _01_RfidSim.tag[0].nic  TagReceivedAcknowledgement  ETV
vector 336  _01_RfidSim.reader[43].nic  ReaderSendAcknowledgement  ETV
vector 248  _01_RfidSim.reader[21].nic  ReaderSendAcknowledgement  ETV
vector 320  _01_RfidSim.reader[39].nic  ReaderSendAcknowledgement  ETV
vector 642  _01_RfidSim.tag[39].nic  TagReceivedAcknowledgement  ETV
vector 762  _01_RfidSim.tag[69].nic  TagReceivedAcknowledgement  ETV
vector 714  _01_RfidSim.tag[57].nic  TagReceivedAcknowledgement  ETV
vector 444  _01_RfidSim.reader[70].nic  ReaderSendAcknowledgement  ETV
vector 646  _01_RfidSim.tag[40].nic  TagReceivedAcknowledgement  ETV
vector 574  _01_RfidSim.tag[22].nic  TagReceivedAcknowledgement  ETV
vector 388  _01_RfidSim.reader[56].nic  ReaderSendAcknowledgement  ETV
vector 618  _01_RfidSim.tag[33].nic  TagReceivedAcknowledgement  ETV
vector 312  _01_RfidSim.reader[37].nic  ReaderSendAcknowledgement  ETV
vector 376  _01_RfidSim.reader[53].nic  ReaderSendAcknowledgement  ETV
vector 698  _01_RfidSim.tag[53].nic  TagReceivedAcknowledgement  ETV
vector 678  _01_RfidSim.tag[48].nic  TagReceivedAcknowledgement  ETV
vector 694  _01_RfidSim.tag[52].nic  TagReceivedAcknowledgement  ETV
vector 630  _01_RfidSim.tag[36].nic  TagReceivedAcknowledgement  ETV
vector 682  _01_RfidSim.tag[49].nic  TagReceivedAcknowledgement  ETV
vector 610  _01_RfidSim.tag[31].nic  TagReceivedAcknowledgement  ETV
vector 578  _01_RfidSim.tag[23].nic  TagReceivedAcknowledgement  ETV
vector 758  _01_RfidSim.tag[68].nic  TagReceivedAcknowledgement  ETV
vector 546  _01_RfidSim.tag[15].nic  TagReceivedAcknowledgement  ETV
vector 252  _01_RfidSim.reader[22].nic  ReaderSendAcknowledgement  ETV
vector 606  _01_RfidSim.tag[30].nic  TagReceivedAcknowledgement  ETV
vector 328  _01_RfidSim.reader[41].nic  ReaderSendAcknowledgement  ETV
vector 360  _01_RfidSim.reader[49].nic  ReaderSendAcknowledgement  ETV
vector 614  _01_RfidSim.tag[32].nic  TagReceivedAcknowledgement  ETV
vector 686  _01_RfidSim.tag[50].nic  TagReceivedAcknowledgement  ETV
vector 674  _01_RfidSim.tag[47].nic  TagReceivedAcknowledgement  ETV
163	2132	0.001494	173
163	2698	0.002064	173
163	3463	0.002654	173
163	4347	0.003324	173
163	10927	0.007454	173
163	18390	0.012424	173
163	46508	0.031972003	173
164	12539	0.00867	173
164	84637	0.066350004	173
167	1420	0.000904	180
167	2134	0.001494	180
167	2700	0.002064	180
167	3465	0.002654	180
167	16223	0.011044	180
167	17159	0.011634	180
167	18392	0.012424	180
167	41270	0.028362003	180
167	46510	0.031972003	180
167	49760	0.034022003	180
171	2703	0.002064	187
171	3468	0.002654	187
171	16225	0.011044	187
171	18394	0.012424	187
171	41274	0.028362003	187
171	46512	0.031972003	187
171	49762	0.034022003	187
171	89073	0.071988003	187
175	2706	0.002064	194
175	3360	0.002594	194
175	6643	0.004764	194
175	7778	0.005454	194
175	8875	0.006184	194
175	9894	0.006734	194
175	17161	0.011634	194
175	17813	0.012130001	194
175	38431	0.02637	194
175	41276	0.028362003	194
175	49764	0.034022003	194
175	89075	0.071988003	194
176	5207	0.00391	194