version 2
run Experiment6_36staticReaders_81TagsGrid-0-20150406-10:10:02-13104
attr configname Experiment6_36staticReaders_81TagsGrid
attr datetime 20150406-10:10:02
attr experiment Experiment6_36staticReaders_81TagsGrid
attr inifile omnetpp.ini
attr iterationvars ""
attr iterationvars2 $repetition=0
attr measurement ""
attr network _01_RfidSim
attr processid 13104
attr repetition 0
attr replication #0
attr resultdir results
attr runnumber 0
attr seedset 0

vector 585  _01_RfidSim.reader[0].nic.phy  RadioState  ETV
vector 586  _01_RfidSim.reader[0].nic.phy  RadioChannel  ETV
vector 587  _01_RfidSim.reader[1].nic.phy  RadioState  ETV
vector 588  _01_RfidSim.reader[1].nic.phy  RadioChannel  ETV
vector 589  _01_RfidSim.reader[2].nic.phy  RadioState  ETV
vector 590  _01_RfidSim.reader[2].nic.phy  RadioChannel  ETV
vector 591  _01_RfidSim.reader[3].nic.phy  RadioState  ETV
vector 592  _01_RfidSim.reader[3].nic.phy  RadioChannel  ETV
vector 593  _01_RfidSim.reader[4].nic.phy  RadioState  ETV
vector 594  _01_RfidSim.reader[4].nic.phy  RadioChannel  ETV
vector 595  _01_RfidSim.reader[5].nic.phy  RadioState  ETV
vector 596  _01_RfidSim.reader[5].nic.phy  RadioChannel  ETV
vector 597  _01_RfidSim.reader[6].nic.phy  RadioState  ETV
vector 598  _01_RfidSim.reader[6].nic.phy  RadioChannel  ETV
vector 599  _01_RfidSim.reader[7].nic.phy  RadioState  ETV
vector 600  _01_RfidSim.reader[7].nic.phy  RadioChannel  ETV
vector 601  _01_RfidSim.reader[8].nic.phy  RadioState  ETV
vector 602  _01_RfidSim.reader[8].nic.phy  RadioChannel  ETV
vector 603  _01_RfidSim.reader[9].nic.phy  RadioState  ETV
vector 604  _01_RfidSim.reader[9].nic.phy  RadioChannel  ETV
vector 605  _01_RfidSim.reader[10].nic.phy  RadioState  ETV
vector 606  _01_RfidSim.reader[10].nic.phy  RadioChannel  ETV
vector 607  _01_RfidSim.reader[11].nic.phy  RadioState  ETV
vector 608  _01_RfidSim.reader[11].nic.phy  RadioChannel  ETV
vector 609  _01_RfidSim.reader[12].nic.phy  RadioState  ETV
vector 610  _01_RfidSim.reader[12].nic.phy  RadioChannel  ETV
vector 611  _01_RfidSim.reader[13].nic.phy  RadioState  ETV
vector 612  _01_RfidSim.reader[13].nic.phy  RadioChannel  ETV
vector 613  _01_RfidSim.reader[14].nic.phy  RadioState  ETV
vector 614  _01_RfidSim.reader[14].nic.phy  RadioChannel  ETV
vector 615  _01_RfidSim.reader[15].nic.phy  RadioState  ETV
vector 616  _01_RfidSim.reader[15].nic.phy  RadioChannel  ETV
vector 617  _01_RfidSim.reader[16].nic.phy  RadioState  ETV
vector 618  _01_RfidSim.reader[16].nic.phy  RadioChannel  ETV
vector 619  _01_RfidSim.reader[17].nic.phy  RadioState  ETV
vector 620  _01_RfidSim.reader[17].nic.phy  RadioChannel  ETV
vector 621  _01_RfidSim.reader[18].nic.phy  RadioState  ETV
vector 622  _01_RfidSim.reader[18].nic.phy  RadioChannel  ETV
vector 623  _01_RfidSim.reader[19].nic.phy  RadioState  ETV
vector 624  _01_RfidSim.reader[19].nic.phy  RadioChannel  ETV
vector 625  _01_RfidSim.reader[20].nic.phy  RadioState  ETV
vector 626  _01_RfidSim.reader[20].nic.phy  RadioChannel  ETV
vector 627  _01_RfidSim.reader[21].nic.phy  RadioState  ETV
vector 628  _01_RfidSim.reader[21].nic.phy  RadioChannel  ETV
vector 629  _01_RfidSim.reader[22].nic.phy  RadioState  ETV
vector 630  _01_RfidSim.reader[22].nic.phy  RadioChannel  ETV
vector 631  _01_RfidSim.reader[23].nic.phy  RadioState  ETV
vector 632  _01_RfidSim.reader[23].nic.phy  RadioChannel  ETV
vector 633  _01_RfidSim.reader[24].nic.phy  RadioState  ETV
vector 634  _01_RfidSim.reader[24].nic.phy  RadioChannel  ETV
vector 635  _01_RfidSim.reader[25].nic.phy  RadioState  ETV
vector 636  _01_RfidSim.reader[25].nic.phy  RadioChannel  ETV
vector 637  _01_RfidSim.reader[26].nic.phy  RadioState  ETV
vector 638  _01_RfidSim.reader[26].nic.phy  RadioChannel  ETV
vector 639  _01_RfidSim.reader[27].nic.phy  RadioState  ETV
vector 640  _01_RfidSim.reader[27].nic.phy  RadioChannel  ETV
vector 641  _01_RfidSim.reader[28].nic.phy  RadioState  ETV
vector 642  _01_RfidSim.reader[28].nic.phy  RadioChannel  ETV
vector 643  _01_RfidSim.reader[29].nic.phy  RadioState  ETV
vector 644  _01_RfidSim.reader[29].nic.phy  RadioChannel  ETV
vector 645  _01_RfidSim.reader[30].nic.phy  RadioState  ETV
vector 646  _01_RfidSim.reader[30].nic.phy  RadioChannel  ETV
vector 647  _01_RfidSim.reader[31].nic.phy  RadioState  ETV
vector 648  _01_RfidSim.reader[31].nic.phy  RadioChannel  ETV
vector 649  _01_RfidSim.reader[32].nic.phy  RadioState  ETV
vector 650  _01_RfidSim.reader[32].nic.phy  RadioChannel  ETV
vector 651  _01_RfidSim.reader[33].nic.phy  RadioState  ETV
vector 652  _01_RfidSim.reader[33].nic.phy  RadioChannel  ETV
vector 653  _01_RfidSim.reader[34].nic.phy  RadioState  ETV
vector 654  _01_RfidSim.reader[34].nic.phy  RadioChannel  ETV
vector 655  _01_RfidSim.reader[35].nic.phy  RadioState  ETV
vector 656  _01_RfidSim.reader[35].nic.phy  RadioChannel  ETV
vector 118  _01_RfidSim.reader[0].nic  TagReceivedQuery  ETV
vector 122  _01_RfidSim.reader[1].nic  TagReceivedQuery  ETV
vector 126  _01_RfidSim.reader[2].nic  TagReceivedQuery  ETV
vector 142  _01_RfidSim.reader[6].nic  TagReceivedQuery  ETV
vector 146  _01_RfidSim.reader[7].nic  TagReceivedQuery  ETV
vector 150  _01_RfidSim.reader[8].nic  TagReceivedQuery  ETV
vector 166  _01_RfidSim.reader[12].nic  TagReceivedQuery  ETV
vector 174  _01_RfidSim.reader[14].nic  TagReceivedQuery  ETV
vector 190  _01_RfidSim.reader[18].nic  TagReceivedQuery  ETV
vector 194  _01_RfidSim.reader[19].nic  TagReceivedQuery  ETV
vector 198  _01_RfidSim.reader[20].nic  TagReceivedQuery  ETV
vector 214  _01_RfidSim.reader[24].nic  TagReceivedQuery  ETV
vector 306  _01_RfidSim.tag[11].nic  TagReceivedQuery  ETV
vector 342  _01_RfidSim.tag[20].nic  TagReceivedQuery  ETV
vector 346  _01_RfidSim.tag[21].nic  TagReceivedQuery  ETV
vector 378  _01_RfidSim.tag[29].nic  TagReceivedQuery  ETV
vector 382  _01_RfidSim.tag[30].nic  TagReceivedQuery  ETV
vector 414  _01_RfidSim.tag[38].nic  TagReceivedQuery  ETV
vector 418  _01_RfidSim.tag[39].nic  TagReceivedQuery  ETV
vector 450  _01_RfidSim.tag[47].nic  TagReceivedQuery  ETV
vector 134  _01_RfidSim.reader[4].nic  TagReceivedQuery  ETV
vector 138  _01_RfidSim.reader[5].nic  TagReceivedQuery  ETV
vector 158  _01_RfidSim.reader[10].nic  TagReceivedQuery  ETV
vector 162  _01_RfidSim.reader[11].nic  TagReceivedQuery  ETV
vector 182  _01_RfidSim.reader[16].nic  TagReceivedQuery  ETV
vector 206  _01_RfidSim.reader[22].nic  TagReceivedQuery  ETV
vector 210  _01_RfidSim.reader[23].nic  TagReceivedQuery  ETV
vector 326  _01_RfidSim.tag[16].nic  TagReceivedQuery  ETV
vector 362  _01_RfidSim.tag[25].nic  TagReceivedQuery  ETV
vector 394  _01_RfidSim.tag[33].nic  TagReceivedQuery  ETV
vector 398  _01_RfidSim.tag[34].nic  TagReceivedQuery  ETV
vector 402  _01_RfidSim.tag[35].nic  TagReceivedQuery  ETV
vector 434  _01_RfidSim.tag[43].nic  TagReceivedQuery  ETV
vector 470  _01_RfidSim.tag[52].nic  TagReceivedQuery  ETV
vector 226  _01_RfidSim.reader[27].nic  TagReceivedQuery  ETV
vector 246  _01_RfidSim.reader[32].nic  TagReceivedQuery  ETV
vector 254  _01_RfidSim.reader[34].nic  TagReceivedQuery  ETV
vector 530  _01_RfidSim.tag[67].nic  TagReceivedQuery  ETV
vector 534  _01_RfidSim.tag[68].nic  TagReceivedQuery  ETV
vector 566  _01_RfidSim.tag[76].nic  TagReceivedQuery  ETV
vector 570  _01_RfidSim.tag[77].nic  TagReceivedQuery  ETV
vector 130  _01_RfidSim.reader[3].nic  TagReceivedQuery  ETV
vector 154  _01_RfidSim.reader[9].nic  TagReceivedQuery  ETV
vector 318  _01_RfidSim.tag[14].nic  TagReceivedQuery  ETV
vector 350  _01_RfidSim.tag[22].nic  TagReceivedQuery  ETV
vector 354  _01_RfidSim.tag[23].nic  TagReceivedQuery  ETV
vector 386  _01_RfidSim.tag[31].nic  TagReceivedQuery  ETV
vector 390  _01_RfidSim.tag[32].nic  TagReceivedQuery  ETV
vector 422  _01_RfidSim.tag[40].nic  TagReceivedQuery  ETV
vector 426  _01_RfidSim.tag[41].nic  TagReceivedQuery  ETV
vector 462  _01_RfidSim.tag[50].nic  TagReceivedQuery  ETV
vector 238  _01_RfidSim.reader[30].nic  TagReceivedQuery  ETV
vector 522  _01_RfidSim.tag[65].nic  TagReceivedQuery  ETV
vector 558  _01_RfidSim.tag[74].nic  TagReceivedQuery  ETV
vector 562  _01_RfidSim.tag[75].nic  TagReceivedQuery  ETV
vector 542  _01_RfidSim.tag[70].nic  TagReceivedQuery  ETV
vector 574  _01_RfidSim.tag[78].nic  TagReceivedQuery  ETV
vector 578  _01_RfidSim.tag[79].nic  TagReceivedQuery  ETV
vector 582  _01_RfidSim.tag[80].nic  TagReceivedQuery  ETV
vector 170  _01_RfidSim.reader[13].nic  TagReceivedQuery  ETV
vector 270  _01_RfidSim.tag[2].nic  TagReceivedQuery  ETV
vector 274  _01_RfidSim.tag[3].nic  TagReceivedQuery  ETV
vector 302  _01_RfidSim.tag[10].nic  TagReceivedQuery  ETV
vector 338  _01_RfidSim.tag[19].nic  TagReceivedQuery  ETV
vector 370  _01_RfidSim.tag[27].nic  TagReceivedQuery  ETV
vector 374  _01_RfidSim.tag[28].nic  TagReceivedQuery  ETV
vector 410  _01_RfidSim.tag[37].nic  TagReceivedQuery  ETV
vector 446  _01_RfidSim.tag[46].nic  TagReceivedQuery  ETV
vector 186  _01_RfidSim.reader[17].nic  TagReceivedQuery  ETV
vector 290  _01_RfidSim.tag[7].nic  TagReceivedQuery  ETV
vector 322  _01_RfidSim.tag[15].nic  TagReceivedQuery  ETV
vector 330  _01_RfidSim.tag[17].nic  TagReceivedQuery  ETV
vector 358  _01_RfidSim.tag[24].nic  TagReceivedQuery  ETV
vector 178  _01_RfidSim.reader[15].nic  TagReceivedQuery  ETV
vector 202  _01_RfidSim.reader[21].nic  TagReceivedQuery  ETV
vector 278  _01_RfidSim.tag[4].nic  TagReceivedQuery  ETV
vector 282  _01_RfidSim.tag[5].nic  TagReceivedQuery  ETV
vector 314  _01_RfidSim.tag[13].nic  TagReceivedQuery  ETV
vector 242  _01_RfidSim.reader[31].nic  TagReceivedQuery  ETV
vector 518  _01_RfidSim.tag[64].nic  TagReceivedQuery  ETV
vector 550  _01_RfidSim.tag[72].nic  TagReceivedQuery  ETV
vector 554  _01_RfidSim.tag[73].nic  TagReceivedQuery  ETV
vector 286  _01_RfidSim.tag[6].nic  TagReceivedQuery  ETV
vector 294  _01_RfidSim.tag[8].nic  TagReceivedQuery  ETV
vector 222  _01_RfidSim.reader[26].nic  TagReceivedQuery  ETV
vector 230  _01_RfidSim.reader[28].nic  TagReceivedQuery  ETV
vector 250  _01_RfidSim.reader[33].nic  TagReceivedQuery  ETV
vector 458  _01_RfidSim.tag[49].nic  TagReceivedQuery  ETV
vector 494  _01_RfidSim.tag[58].nic  TagReceivedQuery  ETV
vector 498  _01_RfidSim.tag[59].nic  TagReceivedQuery  ETV
vector 234  _01_RfidSim.reader[29].nic  TagReceivedQuery  ETV
vector 258  _01_RfidSim.reader[35].nic  TagReceivedQuery  ETV
vector 466  _01_RfidSim.tag[51].nic  TagReceivedQuery  ETV
vector 474  _01_RfidSim.tag[53].nic  TagReceivedQuery  ETV
vector 506  _01_RfidSim.tag[61].nic  TagReceivedQuery  ETV
vector 454  _01_RfidSim.tag[48].nic  TagReceivedQuery  ETV
vector 490  _01_RfidSim.tag[57].nic  TagReceivedQuery  ETV
vector 526  _01_RfidSim.tag[66].nic  TagReceivedQuery  ETV
vector 167  _01_RfidSim.reader[12].nic  ReaderSendAcknowledgement  ETV
vector 337  _01_RfidSim.tag[19].nic  TagReceivedAcknowledgement  ETV
vector 239  _01_RfidSim.reader[30].nic  ReaderSendAcknowledgement  ETV
vector 502  _01_RfidSim.tag[60].nic  TagReceivedQuery  ETV
vector 538  _01_RfidSim.tag[69].nic  TagReceivedQuery  ETV
vector 546  _01_RfidSim.tag[71].nic  TagReceivedQuery  ETV
vector 310  _01_RfidSim.tag[12].nic  TagReceivedQuery  ETV
vector 553  _01_RfidSim.tag[73].nic  TagReceivedAcknowledgement  ETV
vector 262  _01_RfidSim.tag[0].nic  TagReceivedQuery  ETV
vector 266  _01_RfidSim.tag[1].nic  TagReceivedQuery  ETV
vector 218  _01_RfidSim.reader[25].nic  TagReceivedQuery  ETV
vector 482  _01_RfidSim.tag[55].nic  TagReceivedQuery  ETV
vector 486  _01_RfidSim.tag[56].nic  TagReceivedQuery  ETV
vector 514  _01_RfidSim.tag[63].nic  TagReceivedQuery  ETV
vector 259  _01_RfidSim.reader[35].nic  ReaderSendAcknowledgement  ETV
vector 155  _01_RfidSim.reader[9].nic  ReaderSendAcknowledgement  ETV
vector 541  _01_RfidSim.tag[70].nic  TagReceivedAcknowledgement  ETV
vector 119  _01_RfidSim.reader[0].nic  ReaderSendAcknowledgement  ETV
vector 281  _01_RfidSim.tag[5].nic  TagReceivedAcknowledgement  ETV
vector 301  _01_RfidSim.tag[10].nic  TagReceivedAcknowledgement  ETV
vector 187  _01_RfidSim.reader[17].nic  ReaderSendAcknowledgement  ETV
vector 517  _01_RfidSim.tag[64].nic  TagReceivedAcknowledgement  ETV
vector 401  _01_RfidSim.tag[35].nic  TagReceivedAcknowledgement  ETV
vector 131  _01_RfidSim.reader[3].nic  ReaderSendAcknowledgement  ETV
vector 261  _01_RfidSim.tag[0].nic  TagReceivedAcknowledgement  ETV
vector 313  _01_RfidSim.tag[13].nic  TagReceivedAcknowledgement  ETV
vector 298  _01_RfidSim.tag[9].nic  TagReceivedQuery  ETV
vector 211  _01_RfidSim.reader[23].nic  ReaderSendAcknowledgement  ETV
vector 473  _01_RfidSim.tag[53].nic  TagReceivedAcknowledgement  ETV
vector 373  _01_RfidSim.tag[28].nic  TagReceivedAcknowledgement  ETV
vector 139  _01_RfidSim.reader[5].nic  ReaderSendAcknowledgement  ETV
vector 235  _01_RfidSim.reader[29].nic  ReaderSendAcknowledgement  ETV
vector 285  _01_RfidSim.tag[6].nic  TagReceivedAcknowledgement  ETV
vector 179  _01_RfidSim.reader[15].nic  ReaderSendAcknowledgement  ETV
vector 581  _01_RfidSim.tag[80].nic  TagReceivedAcknowledgement  ETV
vector 557  _01_RfidSim.tag[74].nic  TagReceivedAcknowledgement  ETV
vector 389  _01_RfidSim.tag[32].nic  TagReceivedAcknowledgement  ETV
vector 143  _01_RfidSim.reader[6].nic  ReaderSendAcknowledgement  ETV
vector 215  _01_RfidSim.reader[24].nic  ReaderSendAcknowledgement  ETV
vector 297  _01_RfidSim.tag[9].nic  TagReceivedAcknowledgement  ETV
vector 349  _01_RfidSim.tag[22].nic  TagReceivedAcknowledgement  ETV
vector 163  _01_RfidSim.reader[11].nic  ReaderSendAcknowledgement  ETV
vector 243  _01_RfidSim.reader[31].nic  ReaderSendAcknowledgement  ETV
vector 329  _01_RfidSim.tag[17].nic  TagReceivedAcknowledgement  ETV
vector 265  _01_RfidSim.tag[1].nic  TagReceivedAcknowledgement  ETV
vector 521  _01_RfidSim.tag[65].nic  TagReceivedAcknowledgement  ETV
vector 385  _01_RfidSim.tag[31].nic  TagReceivedAcknowledgement  ETV
vector 159  _01_RfidSim.reader[10].nic  ReaderSendAcknowledgement  ETV
vector 393  _01_RfidSim.tag[33].nic  TagReceivedAcknowledgement  ETV
vector 481  _01_RfidSim.tag[55].nic  TagReceivedAcknowledgement  ETV
vector 135  _01_RfidSim.reader[4].nic  ReaderSendAcknowledgement  ETV
vector 251  _01_RfidSim.reader[33].nic  ReaderSendAcknowledgement  ETV
vector 317  _01_RfidSim.tag[14].nic  TagReceivedAcknowledgement  ETV
vector 269  _01_RfidSim.tag[2].nic  TagReceivedAcknowledgement  ETV
vector 533  _01_RfidSim.tag[68].nic  TagReceivedAcknowledgement  ETV
vector 219  _01_RfidSim.reader[25].nic  ReaderSendAcknowledgement  ETV
vector 293  _01_RfidSim.tag[8].nic  TagReceivedAcknowledgement  ETV
vector 353  _01_RfidSim.tag[23].nic  TagReceivedAcknowledgement  ETV
vector 449  _01_RfidSim.tag[47].nic  TagReceivedAcknowledgement  ETV
vector 442  _01_RfidSim.tag[45].nic  TagReceivedQuery  ETV
vector 569  _01_RfidSim.tag[77].nic  TagReceivedAcknowledgement  ETV
vector 321  _01_RfidSim.tag[15].nic  TagReceivedAcknowledgement  ETV
vector 231  _01_RfidSim.reader[28].nic  ReaderSendAcknowledgement  ETV
vector 191  _01_RfidSim.reader[18].nic  ReaderSendAcknowledgement  ETV
vector 537  _01_RfidSim.tag[69].nic  TagReceivedAcknowledgement  ETV
vector 277  _01_RfidSim.tag[4].nic  TagReceivedAcknowledgement  ETV
vector 469  _01_RfidSim.tag[52].nic  TagReceivedAcknowledgement  ETV
vector 123  _01_RfidSim.reader[1].nic  ReaderSendAcknowledgement  ETV
vector 273  _01_RfidSim.tag[3].nic  TagReceivedAcknowledgement  ETV
vector 171  _01_RfidSim.reader[13].nic  ReaderSendAcknowledgement  ETV
vector 341  _01_RfidSim.tag[20].nic  TagReceivedAcknowledgement  ETV
vector 227  _01_RfidSim.reader[27].nic  ReaderSendAcknowledgement  ETV
vector 497  _01_RfidSim.tag[59].nic  TagReceivedAcknowledgement  ETV
vector 377  _01_RfidSim.tag[29].nic  TagReceivedAcknowledgement  ETV
vector 361  _01_RfidSim.tag[25].nic  TagReceivedAcknowledgement  ETV
vector 409  _01_RfidSim.tag[37].nic  TagReceivedAcknowledgement  ETV
vector 529  _01_RfidSim.tag[67].nic  TagReceivedAcknowledgement  ETV
vector 430  _01_RfidSim.tag[42].nic  TagReceivedQuery  ETV
vector 199  _01_RfidSim.reader[20].nic  ReaderSendAcknowledgement  ETV
vector 381  _01_RfidSim.tag[30].nic  TagReceivedAcknowledgement  ETV
vector 433  _01_RfidSim.tag[43].nic  TagReceivedAcknowledgement  ETV
vector 127  _01_RfidSim.reader[2].nic  ReaderSendAcknowledgement  ETV
vector 183  _01_RfidSim.reader[16].nic  ReaderSendAcknowledgement  ETV
vector 309  _01_RfidSim.tag[12].nic  TagReceivedAcknowledgement  ETV
vector 429  _01_RfidSim.tag[42].nic  TagReceivedAcknowledgement  ETV
vector 223  _01_RfidSim.reader[26].nic  ReaderSendAcknowledgement  ETV
vector 525  _01_RfidSim.tag[66].nic  TagReceivedAcknowledgement  ETV
vector 369  _01_RfidSim.tag[27].nic  TagReceivedAcknowledgement  ETV
vector 577  _01_RfidSim.tag[79].nic  TagReceivedAcknowledgement  ETV
vector 505  _01_RfidSim.tag[61].nic  TagReceivedAcknowledgement  ETV
vector 203  _01_RfidSim.reader[21].nic  ReaderSendAcknowledgement  ETV
vector 425  _01_RfidSim.tag[41].nic  TagReceivedAcknowledgement  ETV
vector 151  _01_RfidSim.reader[8].nic  ReaderSendAcknowledgement  ETV
vector 545  _01_RfidSim.tag[71].nic  TagReceivedAcknowledgement  ETV
vector 305  _01_RfidSim.tag[11].nic  TagReceivedAcknowledgement  ETV
vector 453  _01_RfidSim.tag[48].nic  TagReceivedAcknowledgement  ETV
vector 413  _01_RfidSim.tag[38].nic  TagReceivedAcknowledgement  ETV
vector 175  _01_RfidSim.reader[14].nic  ReaderSendAcknowledgement  ETV
vector 465  _01_RfidSim.tag[51].nic  TagReceivedAcknowledgement  ETV
vector 441  _01_RfidSim.tag[45].nic  TagReceivedAcknowledgement  ETV
vector 501  _01_RfidSim.tag[60].nic  TagReceivedAcknowledgement  ETV
vector 573  _01_RfidSim.tag[78].nic  TagReceivedAcknowledgement  ETV
vector 485  _01_RfidSim.tag[56].nic  TagReceivedAcknowledgement  ETV
vector 207  _01_RfidSim.reader[22].nic  ReaderSendAcknowledgement  ETV
vector 461  _01_RfidSim.tag[50].nic  TagReceivedAcknowledgement  ETV
vector 195  _01_RfidSim.reader[19].nic  ReaderSendAcknowledgement  ETV
vector 561  _01_RfidSim.tag[75].nic  TagReceivedAcknowledgement  ETV
vector 489  _01_RfidSim.tag[57].nic  TagReceivedAcknowledgement  ETV
vector 357  _01_RfidSim.tag[24].nic  TagReceivedAcknowledgement  ETV
118	674	0.000844	128
118	1230	0.001434	128
118	7208	0.007625625929	128
118	15984	0.017135507958	128
119	4773	0.005131625929	128
119	6486	0.006751625929	128
119	15161	0.016221507958	128
119	21108	0.023327508958	128
122	677	0.000844	135
122	3428	0.003830510047	135
122	7210	0.007625625929	135
122	15986	0.017135507958	135
123	27951	0.031180001	135
126	680	0.000844	142
126	1233	0.001434	142
126	2061	0.002364	142
126	5312	0.005778	142
126	35926	0.040770002	142
127	34384	0.038880001	142
130	895	0.000944	149
130	1481	0.001714	149
130	2943	0.003414	149
130	5314	0.005778	149
130	7623	0.008028	149
130	32274	0.036392004	149
130	35928	0.040770002	149
131	6712	0.007014	149
134	764	0.000844	156
134	1344	0.001554	156
134	1799	0.002164	156
134	3198	0.003608	156
134	32276	0.036392004	156
135	19591	0.021720001	156
138	766	0.000844	163
138	1346	0.001554	163
138	3200	0.003608	163
138	7625	0.008028	163
138	32278	0.036392004	163
139	8972	0.009404	163
139	22391	0.024760001	163
142	682	0.000844	170
142	3430	0.003830510047	170
142	15989	0.017135507958	170
143	13555	0.014701507958	170
143	44232	0.052948004	170
143	46953	0.056048004	170
146	685	0.000844	177
146	1238	0.001434	177
146	3433	0.003830510047	177
146	7212	0.007625625929	177
150	688	0.000844	184
150	1241	0.001434	184
150	1882	0.002284	184
150	2418	0.002854	184
150	2946	0.003414	184
150	35931	0.040770002	184
151	40232	0.047618004	184
154	900	0.000944	191
154	2421	0.002854	191
154	2949	0.003414	191
154	5317	0.005778	191
154	32280	0.036392004	191
155	4412	0.004844	191
155	13822	0.014800001	191
155	15347	0.016360001	191
155	20973	0.023240001	191
155	22558	0.024920001	191
155	26633	0.029660001	191
158	769	0.000844	198
158	1349	0.001554	198
158	1801	0.002164	198
158	7628	0.008028	198
158	32282	0.036392004	198
158	41787	0.049548005	198
159	17727	0.019600001	198
159	23924	0.026440001	198
159	38168	0.044278004	198
162	771	0.000844	205
162	1803	0.002164	205
162	2226	0.002664	205
162	3203	0.003608	205
162	32284	0.036392004	205
162	41789	0.049548005	205
163	15054	0.016080001	205
163	56238	0.073240006	205
166	690	0.000844	212
166	3436	0.003830510047	212
166	7216	0.007625625929	212
166	15992	0.017135507958	212
167	2532	0.002856510047	212
167	8587	0.008971475307	212
167	31809	0.035780001	212
167	35527	0.040192003	212
167	40752	0.048228004	212
170	1244	0.001434	219
170	3438	0.003830510047	219
170	7218	0.007625625929	219
171	29372	0.032700001	219
171	30530	0.034260001	219
171	42004	0.049748004	219
171	43241	0.051428004	219
174	693	0.000844	226
174	1887	0.002284	226
174	2424	0.002854	226
174	2952	0.003414	226
174	5320	0.005778	226
175	45317	0.054184005	226
175	46750	0.055744005	226
175	47852	0.057324005	226
175	55989	0.072804005	226
178	1488	0.001714	233
178	1889	0.002284	233
178	2427	0.002854	233
178	5324	0.005778	233
178	32286	0.036392004	233
179	12256	0.013260001	233
179	52119	0.063524005	233
182	774	0.000844	240
182	1351	0.001554	240
182	2228	0.002664	240
182	41792	0.049548005	240
183	34615	0.039118004	240
183	43004	0.051004005	240
183	44119	0.052664005	240
183	56791	0.074760006	240
183	57821	0.079720006	240
186	1353	0.001554	247
186	1807	0.002164	247
186	2231	0.002664	247
186	2849	0.003334	247
186	32288	0.036392004	247
186	41794	0.049548005	247
187	5659	0.006131832976	247
187	27015	0.030218003	247
187	31576	0.035398004	247
190	695	0.000844	254
190	1280	0.001434	254
190	3623	0.004068296312	254
190	4156	0.004638296312	254
190	7222	0.007625625929	254
191	24730	0.027364723359	254
191	45524	0.054468004	254
191	50017	0.060364005	254
194	697	0.000844	261
194	1282	0.001434	261
194	3625	0.004068296312	261
194	4159	0.004638296312	261
194	7226	0.007625625929	261
195	52408	0.063904005	261
198	699	0.000844	268
198	1491	0.001714	268
198	1892	0.002284	268
198	3072	0.003544	268
198	3753	0.004134	268
198	4162	0.004638296312	268
198	5327	0.005778	268
198	35937	0.040770002	268
199	33068	0.037360001	268
199	42005	0.049748004	268
199	54800	0.070904005	268
202	1494	0.001714	275
202	2430	0.002854	275
202	3074	0.003544	275
202	3755	0.004134	275
202	5331	0.005778	275
203	39066	0.045798004	275
206	776	0.000844	282
206	1355	0.001554	282
206	1895	0.002284	282
206	2851	0.003334	282
207	51066	0.061884005	282
207	52917	0.065064005	282
207	54013	0.068260006	282
207	55278	0.071760006	282
207	57338	0.077060006	282
210	778	0.000844	289
210	1357	0.001554	289
210	2853	0.003334	289
210	32292	0.036392004	289
210	41797	0.049548005	289
211	7574	0.008011832976	289
211	33183	0.037598004	289
211	45439	0.054324005	289
214	701	0.000844	296
214	4164	0.004638296312	296
215	13627	0.014722002	296
215	17907	0.019698003	296
215	19253	0.021258003	296
218	3627	0.004068296312	303
219	22694	0.025041507958	303
219	49049	0.058844005	303
222	1897	0.002284	310
222	2433	0.002854	310
222	3758	0.004134	310
222	4166	0.004638296312	310
222	13388	0.014356002	310
222	35941	0.040770002	310
223	35255	0.039796002	310
226	839	0.000844	317
226	1900	0.002284	317
226	2436	0.002854	317
226	3077	0.003544	317
226	10110	0.010745832976	317
226	13084	0.014141833976	317
227	30347	0.034074004	317
230	1903	0.002284	324
230	2855	0.003334	324
230	13086	0.014141833976	324
230	41800	0.049548005	324
231	24492	0.027178003	324
234	2235	0.002664	331
234	32296	0.036392004	331
234	41802	0.049548005	331
235	9173	0.009631832976	331
235	37046	0.042598004	331
235	38085	0.044238004	331
235	41147	0.048594005	331
235	46864	0.055844005	331
238	1057	0.001024	338
238	3630	0.004068296312	338
238	4168	0.004638296312	338
238	23467	0.025895507958	338
239	2810	0.003174296312	338
239	5541	0.005931475307	338
239	12119	0.013162002	338
242	1555	0.001794	345
242	3632	0.004068296312	345
242	4170	0.004638296312	345
242	21550	0.023785507958	345
242	23469	0.025895507958	345
243	15242	0.016262002	345
243	54301	0.068764005	345
246	842	0.000844	352
246	1905	0.002284	352
246	2440	0.002854	352
246	3081	0.003544	352
246	3761	0.004134	352
246	4172	0.004638296312	352
250	1908	0.002284	359
250	2443	0.002854	359
250	3084	0.003544	359
250	3764	0.004134	359
250	10113	0.010745832976	359
250	13089	0.014141833976	359
251	21281	0.023518003	359
251	23242	0.025618003	359
251	31918	0.035854004	359
254	844	0.000844	366
254	1910	0.002284	366
254	2858	0.003334	366
254	41805	0.049548005	366
258	2239	0.002664	373
258	2861	0.003334	373
258	41807	0.049548005	373
259	4093	0.004607493678	373
259	12039	0.013147833976	373
259	47946	0.057364005	373
261	6762	0.007055625929	380
262	3440	0.003830510047	380
265	15523	0.016525507958	387
266	3444	0.003830510047	387
266	7229	0.007625625929	387
269	21453	0.023631508958	394
270	1250	0.001434	394
270	3448	0.003830510047	394
270	16000	0.017135507958	394
273	28128	0.031484001	401
274	1254	0.001434	401
274	2957	0.003414	401
274	5334	0.005778	401
274	16005	0.017135507958	401
277	26829	0.029964001	408
278	1499	0.001714	408
278	2072	0.002364	408
278	2961	0.003414	408
278	5338	0.005778	408
281	4847	0.005148	415
281	38392	0.044582004	415
282	1503	0.001714	415
282	2076	0.002364	415
282	3212	0.003608	415
282	7635	0.008028	415
285	9244	0.009708	422
285	19793	0.022024001	422
286	1810	0.002164	422
286	3217	0.003608	422
286	7640	0.008028	422
290	1362	0.001554	429
290	1814	0.002164	429
293	22759	0.025064001	436
294	1818	0.002164	436
297	13937	0.015005507958	443
298	7236	0.007625625929	443
301	5143	0.005435625929	450
301	40973	0.048532004	450
302	1292	0.001434	450
302	3454	0.003830510047	450
302	7240	0.007625625929	450
305	42242	0.050052004	457
306	711	0.000844	457
306	1260	0.001434	457
306	7244	0.007625625929	457
306	16013	0.017135507958	457
309	34716	0.039184001	464
310	2967	0.003414	464
310	5344	0.005778	464
310	16018	0.017135507958	464
310	35949	0.040770002	464
313	6977	0.007318	471
313	40515	0.047922004	471
314	1509	0.001714	471
314	2082	0.002364	471
314	2971	0.003414	471
314	5348	0.005778	471
317	21378	0.023544001	478
318	918	0.000944	478
318	1513	0.001714	478
318	2086	0.002364	478
318	3223	0.003608	478
321	24209	0.026744001	485
321	57934	0.080024006	485
322	1368	0.001554	485
322	3227	0.003608	485
322	7649	0.008028	485
322	32303	0.036392004	485
326	789	0.000844	492
326	1372	0.001554	492
326	1824	0.002164	492
329	15426	0.016384001	499
330	1376	0.001554	499
337	2745	0.003160510047	513
337	47313	0.056352004	513
338	1299	0.001434	513
338	7251	0.007625625929	513
341	29583	0.033004001	520
342	719	0.000844	520
342	7255	0.007625625929	520
342	16026	0.017135507958	520
346	723	0.000844	527
346	5355	0.005778	527
346	16031	0.017135507958	527
346	35956	0.040770002	527
349	14223	0.015104001	534
349	45636	0.054488005	534
350	924	0.000944	534
350	1519	0.001714	534
350	5359	0.005778	534
350	35961	0.040770002	534
353	22914	0.025224001	541
353	56914	0.075064006	541
354	928	0.000944	541
354	1523	0.001714	541
354	3234	0.003608	541
354	32309	0.036392004	541
357	56382	0.073544006	548
358	1381	0.001554	548
358	3238	0.003608	548
358	32313	0.036392004	548
361	31710	0.035702004	555
362	796	0.000844	555
362	1385	0.001554	555
369	35730	0.040496003	569
370	1305	0.001434	569
373	8844	0.009275475307	576
373	44570	0.053252004	576
374	1309	0.001434	576
374	7262	0.007625625929	576
377	30783	0.034564001	583
378	730	0.000844	583
378	1313	0.001434	583
378	16038	0.017135507958	583
378	21561	0.023785507958	583
381	33315	0.037664001	590
381	56147	0.073108005	590
382	734	0.000844	590
382	2452	0.002854	590
382	5366	0.005778	590
382	35967	0.040770002	590
385	15789	0.016664001	597
385	47062	0.056048005	597
386	934	0.000944	597
386	1529	0.001714	597
386	5371	0.005778	597
386	35971	0.040770002	597
389	12583	0.013564001	604
389	44352	0.052968005	604
390	938	0.000944	604
390	1533	0.001714	604
390	1920	0.002284	604
390	32321	0.036392004	604
393	18025	0.019904001	611
393	43136	0.051308005	611
393	57462	0.077364006	611
394	802	0.000844	611
394	3246	0.003608	611
394	32325	0.036392004	611
394	41818	0.049548005	611
398	806	0.000844	618
398	1392	0.001554	618
398	2249	0.002664	618
401	6142	0.006435832976	625
402	810	0.000844	625
409	32083	0.036084001	639
410	1320	0.001434	639
413	43444	0.051732004	646
414	741	0.000844	646
414	21570	0.023785507958	646
418	745	0.000844	653
418	2459	0.002854	653
418	21575	0.023785507958	653
418	35977	0.040770002	653
422	944	0.000944	660
422	1926	0.002284	660
422	2463	0.002854	660
422	35981	0.040770002	660
425	39260	0.046102004	667
425	53048	0.065368005	667
426	948	0.000944	667
426	1930	0.002284	667
426	32332	0.036392004	667
426	41825	0.049548005	667
429	35008	0.039422004	674
429	54216	0.068564006	674
430	32336	0.036392004	674
430	41829	0.049548005	674
433	33597	0.037902004	681
434	816	0.000844	681
434	2256	0.002664	681
441	45953	0.054772004	695
442	23485	0.025895507958	695
446	1327	0.001434	702
446	3642	0.004068296312	702
446	23489	0.025895507958	702
449	23057	0.025345507958	709
449	52530	0.064208005	709
450	751	0.000844	709
450	4184	0.004638296312	709
450	21582	0.023785507958	709
453	42322	0.050052004	716
453	48141	0.057628005	716
454	2470	0.002854	716
454	3095	0.003544	716
454	21587	0.023785507958	716
454	35988	0.040770002	716
458	1936	0.002284	723
458	2474	0.002854	723
458	3099	0.003544	723
458	3776	0.004134	723
461	52261	0.063828005	730
462	955	0.000944	730
462	1940	0.002284	730
462	3780	0.004134	730