file 68820 1428341163                                           
version 2
run Experiment18_9staticReaders_289TagsGrid-0-20150406-10:24:05-15144
attr configname Experiment18_9staticReaders_289TagsGrid
attr datetime 20150406-10:24:05
attr experiment Experiment18_9staticReaders_289TagsGrid
attr inifile omnetpp.ini
attr iterationvars ""
attr iterationvars2 $repetition=0
attr measurement ""
attr network _01_RfidSim
attr processid 15144
attr repetition 0
attr replication #0
attr resultdir results
attr runnumber 0
attr seedset 0

vector 1490  _01_RfidSim.reader[0].nic.phy  RadioState  ETV
vector 1491  _01_RfidSim.reader[0].nic.phy  RadioChannel  ETV
vector 1492  _01_RfidSim.reader[1].nic.phy  RadioState  ETV
vector 1493  _01_RfidSim.reader[1].nic.phy  RadioChannel  ETV
vector 1494  _01_RfidSim.reader[2].nic.phy  RadioState  ETV
vector 1495  _01_RfidSim.reader[2].nic.phy  RadioChannel  ETV
vector 1496  _01_RfidSim.reader[3].nic.phy  RadioState  ETV
vector 1497  _01_RfidSim.reader[3].nic.phy  RadioChannel  ETV
vector 1498  _01_RfidSim.reader[4].nic.phy  RadioState  ETV
vector 1499  _01_RfidSim.reader[4].nic.phy  RadioChannel  ETV
vector 1500  _01_RfidSim.reader[5].nic.phy  RadioState  ETV
vector 1501  _01_RfidSim.reader[5].nic.phy  RadioChannel  ETV
vector 1502  _01_RfidSim.reader[6].nic.phy  RadioState  ETV
vector 1503  _01_RfidSim.reader[6].nic.phy  RadioChannel  ETV
vector 1504  _01_RfidSim.reader[7].nic.phy  RadioState  ETV
vector 1505  _01_RfidSim.reader[7].nic.phy  RadioChannel  ETV
vector 1506  _01_RfidSim.reader[8].nic.phy  RadioState  ETV
vector 1507  _01_RfidSim.reader[8].nic.phy  RadioChannel  ETV
vector 1227  _01_RfidSim.tag[223].nic  TagReceivedQuery  ETV
vector 1231  _01_RfidSim.tag[224].nic  TagReceivedQuery  ETV
vector 1291  _01_RfidSim.tag[239].nic  TagReceivedQuery  ETV
vector 1295  _01_RfidSim.tag[240].nic  TagReceivedQuery  ETV
vector 1299  _01_RfidSim.tag[241].nic  TagReceivedQuery  ETV
vector 1303  _01_RfidSim.tag[242].nic  TagReceivedQuery  ETV
vector 1359  _01_RfidSim.tag[256].nic  TagReceivedQuery  ETV
vector 1363  _01_RfidSim.tag[257].nic  TagReceivedQuery  ETV
vector 1367  _01_RfidSim.tag[258].nic  TagReceivedQuery  ETV
vector 1371  _01_RfidSim.tag[259].nic  TagReceivedQuery  ETV
vector 1427  _01_RfidSim.tag[273].nic  TagReceivedQuery  ETV
vector 1431  _01_RfidSim.tag[274].nic  TagReceivedQuery  ETV
vector 1435  _01_RfidSim.tag[275].nic  TagReceivedQuery  ETV
vector 1439  _01_RfidSim.tag[276].nic  TagReceivedQuery  ETV
vector 363  _01_RfidSim.tag[7].nic  TagReceivedQuery  ETV
vector 367  _01_RfidSim.tag[8].nic  TagReceivedQuery  ETV
vector 371  _01_RfidSim.tag[9].nic  TagReceivedQuery  ETV
vector 431  _01_RfidSim.tag[24].nic  TagReceivedQuery  ETV
vector 435  _01_RfidSim.tag[25].nic  TagReceivedQuery  ETV
vector 439  _01_RfidSim.tag[26].nic  TagReceivedQuery  ETV
vector 499  _01_RfidSim.tag[41].nic  TagReceivedQuery  ETV
vector 503  _01_RfidSim.tag[42].nic  TagReceivedQuery  ETV
vector 507  _01_RfidSim.tag[43].nic  TagReceivedQuery  ETV
vector 567  _01_RfidSim.tag[58].nic  TagReceivedQuery  ETV
vector 571  _01_RfidSim.tag[59].nic  TagReceivedQuery  ETV
vector 575  _01_RfidSim.tag[60].nic  TagReceivedQuery  ETV
vector 727  _01_RfidSim.tag[98].nic  TagReceivedQuery  ETV
vector 731  _01_RfidSim.tag[99].nic  TagReceivedQuery  ETV
vector 791  _01_RfidSim.tag[114].nic  TagReceivedQuery  ETV
vector 795  _01_RfidSim.tag[115].nic  TagReceivedQuery  ETV
vector 799  _01_RfidSim.tag[116].nic  TagReceivedQuery  ETV
vector 803  _01_RfidSim.tag[117].nic  TagReceivedQuery  ETV
vector 859  _01_RfidSim.tag[131].nic  TagReceivedQuery  ETV
vector 863  _01_RfidSim.tag[132].nic  TagReceivedQuery  ETV
vector 867  _01_RfidSim.tag[133].nic  TagReceivedQuery  ETV
vector 871  _01_RfidSim.tag[134].nic  TagReceivedQuery  ETV
vector 927  _01_RfidSim.tag[148].nic  TagReceivedQuery  ETV
vector 931  _01_RfidSim.tag[149].nic  TagReceivedQuery  ETV
vector 935  _01_RfidSim.tag[150].nic  TagReceivedQuery  ETV
vector 939  _01_RfidSim.tag[151].nic  TagReceivedQuery  ETV
vector 995  _01_RfidSim.tag[165].nic  TagReceivedQuery  ETV
vector 999  _01_RfidSim.tag[166].nic  TagReceivedQuery  ETV
vector 1003  _01_RfidSim.tag[167].nic  TagReceivedQuery  ETV
vector 1007  _01_RfidSim.tag[168].nic  TagReceivedQuery  ETV
vector 1063  _01_RfidSim.tag[182].nic  TagReceivedQuery  ETV
vector 1067  _01_RfidSim.tag[183].nic  TagReceivedQuery  ETV
vector 1071  _01_RfidSim.tag[184].nic  TagReceivedQuery  ETV
vector 1075  _01_RfidSim.tag[185].nic  TagReceivedQuery  ETV
vector 1135  _01_RfidSim.tag[200].nic  TagReceivedQuery  ETV
vector 1139  _01_RfidSim.tag[201].nic  TagReceivedQuery  ETV
vector 339  _01_RfidSim.tag[1].nic  TagReceivedQuery  ETV
vector 343  _01_RfidSim.tag[2].nic  TagReceivedQuery  ETV
vector 347  _01_RfidSim.tag[3].nic  TagReceivedQuery  ETV
vector 351  _01_RfidSim.tag[4].nic  TagReceivedQuery  ETV
vector 407  _01_RfidSim.tag[18].nic  TagReceivedQuery  ETV
vector 411  _01_RfidSim.tag[19].nic  TagReceivedQuery  ETV
vector 415  _01_RfidSim.tag[20].nic  TagReceivedQuery  ETV
vector 419  _01_RfidSim.tag[21].nic  TagReceivedQuery  ETV
vector 475  _01_RfidSim.tag[35].nic  TagReceivedQuery  ETV
vector 479  _01_RfidSim.tag[36].nic  TagReceivedQuery  ETV
vector 483  _01_RfidSim.tag[37].nic  TagReceivedQuery  ETV
vector 487  _01_RfidSim.tag[38].nic  TagReceivedQuery  ETV
vector 547  _01_RfidSim.tag[53].nic  TagReceivedQuery  ETV
vector 551  _01_RfidSim.tag[54].nic  TagReceivedQuery  ETV
vector 1247  _01_RfidSim.tag[228].nic  TagReceivedQuery  ETV
vector 1251  _01_RfidSim.tag[229].nic  TagReceivedQuery  ETV
vector 1255  _01_RfidSim.tag[230].nic  TagReceivedQuery  ETV
vector 1315  _01_RfidSim.tag[245].nic  TagReceivedQuery  ETV
vector 1319  _01_RfidSim.tag[246].nic  TagReceivedQuery  ETV
vector 1323  _01_RfidSim.tag[247].nic  TagReceivedQuery  ETV
vector 1383  _01_RfidSim.tag[262].nic  TagReceivedQuery  ETV
vector 1387  _01_RfidSim.tag[263].nic  TagReceivedQuery  ETV
vector 1391  _01_RfidSim.tag[264].nic  TagReceivedQuery  ETV
vector 1451  _01_RfidSim.tag[279].nic  TagReceivedQuery  ETV
vector 1455  _01_RfidSim.tag[280].nic  TagReceivedQuery  ETV
vector 1459  _01_RfidSim.tag[281].nic  TagReceivedQuery  ETV
vector 324  _01_RfidSim.reader[6].nic  ReaderSendAcknowledgement  ETV
vector 320  _01_RfidSim.reader[5].nic  ReaderSendAcknowledgement  ETV
vector 1358  _01_RfidSim.tag[256].nic  TagReceivedAcknowledgement  ETV
vector 300  _01_RfidSim.reader[0].nic  ReaderSendAcknowledgement  ETV
vector 1134  _01_RfidSim.tag[200].nic  TagReceivedAcknowledgement  ETV
vector 546  _01_RfidSim.tag[53].nic  TagReceivedAcknowledgement  ETV
vector 304  _01_RfidSim.reader[1].nic  ReaderSendAcknowledgement  ETV
vector 1271  _01_RfidSim.tag[234].nic  TagReceivedQuery  ETV
vector 1275  _01_RfidSim.tag[235].nic  TagReceivedQuery  ETV
vector 1335  _01_RfidSim.tag[250].nic  TagReceivedQuery  ETV
vector 1339  _01_RfidSim.tag[251].nic  TagReceivedQuery  ETV
vector 1343  _01_RfidSim.tag[252].nic  TagReceivedQuery  ETV
vector 1347  _01_RfidSim.tag[253].nic  TagReceivedQuery  ETV
vector 1403  _01_RfidSim.tag[267].nic  TagReceivedQuery  ETV
vector 1407  _01_RfidSim.tag[268].nic  TagReceivedQuery  ETV
vector 1411  _01_RfidSim.tag[269].nic  TagReceivedQuery  ETV
vector 1415  _01_RfidSim.tag[270].nic  TagReceivedQuery  ETV
vector 1471  _01_RfidSim.tag[284].nic  TagReceivedQuery  ETV
vector 1475  _01_RfidSim.tag[285].nic  TagReceivedQuery  ETV
vector 1479  _01_RfidSim.tag[286].nic  TagReceivedQuery  ETV
vector 1483  _01_RfidSim.tag[287].nic  TagReceivedQuery  ETV
vector 502  _01_RfidSim.tag[42].nic  TagReceivedAcknowledgement  ETV
vector 328  _01_RfidSim.reader[7].nic  ReaderSendAcknowledgement  ETV
vector 683  _01_RfidSim.tag[87].nic  TagReceivedQuery  ETV
vector 687  _01_RfidSim.tag[88].nic  TagReceivedQuery  ETV
vector 747  _01_RfidSim.tag[103].nic  TagReceivedQuery  ETV
vector 751  _01_RfidSim.tag[104].nic  TagReceivedQuery  ETV
vector 755  _01_RfidSim.tag[105].nic  TagReceivedQuery  ETV
vector 759  _01_RfidSim.tag[106].nic  TagReceivedQuery  ETV
vector 815  _01_RfidSim.tag[120].nic  TagReceivedQuery  ETV
vector 819  _01_RfidSim.tag[121].nic  TagReceivedQuery  ETV
vector 823  _01_RfidSim.tag[122].nic  TagReceivedQuery  ETV
vector 827  _01_RfidSim.tag[123].nic  TagReceivedQuery  ETV
vector 883  _01_RfidSim.tag[137].nic  TagReceivedQuery  ETV
vector 887  _01_RfidSim.tag[138].nic  TagReceivedQuery  ETV
vector 891  _01_RfidSim.tag[139].nic  TagReceivedQuery  ETV
vector 895  _01_RfidSim.tag[140].nic  TagReceivedQuery  ETV
vector 951  _01_RfidSim.tag[154].nic  TagReceivedQuery  ETV
vector 955  _01_RfidSim.tag[155].nic  TagReceivedQuery  ETV
vector 959  _01_RfidSim.tag[156].nic  TagReceivedQuery  ETV
vector 963  _01_RfidSim.tag[157].nic  TagReceivedQuery  ETV
vector 1019  _01_RfidSim.tag[171].nic  TagReceivedQuery  ETV
vector 1023  _01_RfidSim.tag[172].nic  TagReceivedQuery  ETV
vector 1027  _01_RfidSim.tag[173].nic  TagReceivedQuery  ETV
vector 1031  _01_RfidSim.tag[174].nic  TagReceivedQuery  ETV
vector 1091  _01_RfidSim.tag[189].nic  TagReceivedQuery  ETV
vector 1095  _01_RfidSim.tag[190].nic  TagReceivedQuery  ETV
vector 1382  _01_RfidSim.tag[262].nic  TagReceivedAcknowledgement  ETV
vector 730  _01_RfidSim.tag[99].nic  TagReceivedAcknowledgement  ETV
vector 574  _01_RfidSim.tag[60].nic  TagReceivedAcknowledgement  ETV
vector 383  _01_RfidSim.tag[12].nic  TagReceivedQuery  ETV
vector 387  _01_RfidSim.tag[13].nic  TagReceivedQuery  ETV
vector 391  _01_RfidSim.tag[14].nic  TagReceivedQuery  ETV
vector 395  _01_RfidSim.tag[15].nic  TagReceivedQuery  ETV
vector 451  _01_RfidSim.tag[29].nic  TagReceivedQuery  ETV
vector 455  _01_RfidSim.tag[30].nic  TagReceivedQuery  ETV
vector 459  _01_RfidSim.tag[31].nic  TagReceivedQuery  ETV
vector 463  _01_RfidSim.tag[32].nic  TagReceivedQuery  ETV
vector 519  _01_RfidSim.tag[46].nic  TagReceivedQuery  ETV
vector 523  _01_RfidSim.tag[47].nic  TagReceivedQuery  ETV
vector 527  _01_RfidSim.tag[48].nic  TagReceivedQuery  ETV
vector 531  _01_RfidSim.tag[49].nic  TagReceivedQuery  ETV
vector 591  _01_RfidSim.tag[64].nic  TagReceivedQuery  ETV
vector 595  _01_RfidSim.tag[65].nic  TagReceivedQuery  ETV
vector 550  _01_RfidSim.tag[54].nic  TagReceivedAcknowledgement  ETV
vector 1318  _01_RfidSim.tag[246].nic  TagReceivedAcknowledgement  ETV
vector 1290  _01_RfidSim.tag[239].nic  TagReceivedAcknowledgement  ETV
vector 362  _01_RfidSim.tag[7].nic  TagReceivedAcknowledgement  ETV
vector 1250  _01_RfidSim.tag[229].nic  TagReceivedAcknowledgement  ETV
vector 342  _01_RfidSim.tag[2].nic  TagReceivedAcknowledgement  ETV
vector 332  _01_RfidSim.reader[8].nic  ReaderSendAcknowledgement  ETV
vector 1478  _01_RfidSim.tag[286].nic  TagReceivedAcknowledgement  ETV
vector 366  _01_RfidSim.tag[8].nic  TagReceivedAcknowledgement  ETV
vector 312  _01_RfidSim.reader[3].nic  ReaderSendAcknowledgement  ETV
vector 1450  _01_RfidSim.tag[279].nic  TagReceivedAcknowledgement  ETV
vector 826  _01_RfidSim.tag[123].nic  TagReceivedAcknowledgement  ETV
vector 1482  _01_RfidSim.tag[287].nic  TagReceivedAcknowledgement  ETV
vector 370  _01_RfidSim.tag[9].nic  TagReceivedAcknowledgement  ETV
vector 1390  _01_RfidSim.tag[264].nic  TagReceivedAcknowledgement  ETV
vector 338  _01_RfidSim.tag[1].nic  TagReceivedAcknowledgement  ETV
vector 308  _01_RfidSim.reader[2].nic  ReaderSendAcknowledgement  ETV
vector 1346  _01_RfidSim.tag[253].nic  TagReceivedAcknowledgement  ETV
vector 394  _01_RfidSim.tag[15].nic  TagReceivedAcknowledgement  ETV
vector 506  _01_RfidSim.tag[43].nic  TagReceivedAcknowledgement  ETV
vector 1458  _01_RfidSim.tag[281].nic  TagReceivedAcknowledgement  ETV
vector 478  _01_RfidSim.tag[36].nic  TagReceivedAcknowledgement  ETV
vector 1342  _01_RfidSim.tag[252].nic  TagReceivedAcknowledgement  ETV
vector 386  _01_RfidSim.tag[13].nic  TagReceivedAcknowledgement  ETV
vector 566  _01_RfidSim.tag[58].nic  TagReceivedAcknowledgement  ETV
vector 1322  _01_RfidSim.tag[247].nic  TagReceivedAcknowledgement  ETV
vector 434  _01_RfidSim.tag[25].nic  TagReceivedAcknowledgement  ETV
vector 458  _01_RfidSim.tag[31].nic  TagReceivedAcknowledgement  ETV
vector 526  _01_RfidSim.tag[48].nic  TagReceivedAcknowledgement  ETV
vector 570  _01_RfidSim.tag[59].nic  TagReceivedAcknowledgement  ETV
vector 1254  _01_RfidSim.tag[230].nic  TagReceivedAcknowledgement  ETV
vector 954  _01_RfidSim.tag[155].nic  TagReceivedAcknowledgement  ETV
vector 522  _01_RfidSim.tag[47].nic  TagReceivedAcknowledgement  ETV
vector 430  _01_RfidSim.tag[24].nic  TagReceivedAcknowledgement  ETV
vector 454  _01_RfidSim.tag[30].nic  TagReceivedAcknowledgement  ETV
vector 1246  _01_RfidSim.tag[228].nic  TagReceivedAcknowledgement  ETV
vector 1410  _01_RfidSim.tag[269].nic  TagReceivedAcknowledgement  ETV
vector 703  _01_RfidSim.tag[92].nic  TagReceivedQuery  ETV
vector 707  _01_RfidSim.tag[93].nic  TagReceivedQuery  ETV
vector 711  _01_RfidSim.tag[94].nic  TagReceivedQuery  ETV
vector 771  _01_RfidSim.tag[109].nic  TagReceivedQuery  ETV
vector 775  _01_RfidSim.tag[110].nic  TagReceivedQuery  ETV
vector 779  _01_RfidSim.tag[111].nic  TagReceivedQuery  ETV
vector 839  _01_RfidSim.tag[126].nic  TagReceivedQuery  ETV
vector 843  _01_RfidSim.tag[127].nic  TagReceivedQuery  ETV
vector 847  _01_RfidSim.tag[128].nic  TagReceivedQuery  ETV
vector 907  _01_RfidSim.tag[143].nic  TagReceivedQuery  ETV
vector 911  _01_RfidSim.tag[144].nic  TagReceivedQuery  ETV
vector 915  _01_RfidSim.tag[145].nic  TagReceivedQuery  ETV
vector 975  _01_RfidSim.tag[160].nic  TagReceivedQuery  ETV
vector 979  _01_RfidSim.tag[161].nic  TagReceivedQuery  ETV
vector 983  _01_RfidSim.tag[162].nic  TagReceivedQuery  ETV
vector 1043  _01_RfidSim.tag[177].nic  TagReceivedQuery  ETV
vector 1047  _01_RfidSim.tag[178].nic  TagReceivedQuery  ETV
vector 1051  _01_RfidSim.tag[179].nic  TagReceivedQuery  ETV
vector 1111  _01_RfidSim.tag[194].nic  TagReceivedQuery  ETV
vector 1115  _01_RfidSim.tag[195].nic  TagReceivedQuery  ETV
vector 1119  _01_RfidSim.tag[196].nic  TagReceivedQuery  ETV
vector 590  _01_RfidSim.tag[64].nic  TagReceivedAcknowledgement  ETV
vector 1426  _01_RfidSim.tag[273].nic  TagReceivedAcknowledgement  ETV
vector 1314  _01_RfidSim.tag[245].nic  TagReceivedAcknowledgement  ETV
vector 1406  _01_RfidSim.tag[268].nic  TagReceivedAcknowledgement  ETV
vector 1226  _01_RfidSim.tag[223].nic  TagReceivedAcknowledgement  ETV
vector 482  _01_RfidSim.tag[37].nic  TagReceivedAcknowledgement  ETV
vector 462  _01_RfidSim.tag[32].nic  TagReceivedAcknowledgement  ETV
vector 316  _01_RfidSim.reader[4].nic  ReaderSendAcknowledgement  ETV
vector 1110  _01_RfidSim.tag[194].nic  TagReceivedAcknowledgement  ETV
vector 1470  _01_RfidSim.tag[284].nic  TagReceivedAcknowledgement  ETV
vector 382  _01_RfidSim.tag[12].nic  TagReceivedAcknowledgement  ETV
vector 974  _01_RfidSim.tag[160].nic  TagReceivedAcknowledgement  ETV
vector 1274  _01_RfidSim.tag[235].nic  TagReceivedAcknowledgement  ETV
vector 450  _01_RfidSim.tag[29].nic  TagReceivedAcknowledgement  ETV
vector 410  _01_RfidSim.tag[19].nic  TagReceivedAcknowledgement  ETV
vector 910  _01_RfidSim.tag[144].nic  TagReceivedAcknowledgement  ETV
vector 1414  _01_RfidSim.tag[270].nic  TagReceivedAcknowledgement  ETV
vector 390  _01_RfidSim.tag[14].nic  TagReceivedAcknowledgement  ETV
vector 346  _01_RfidSim.tag[3].nic  TagReceivedAcknowledgement  ETV
vector 706  _01_RfidSim.tag[93].nic  TagReceivedAcknowledgement  ETV
vector 1338  _01_RfidSim.tag[251].nic  TagReceivedAcknowledgement  ETV
vector 474  _01_RfidSim.tag[35].nic  TagReceivedAcknowledgement  ETV
vector 498  _01_RfidSim.tag[41].nic  TagReceivedAcknowledgement  ETV
vector 1230  _01_RfidSim.tag[224].nic  TagReceivedAcknowledgement  ETV
vector 530  _01_RfidSim.tag[49].nic  TagReceivedAcknowledgement  ETV
vector 406  _01_RfidSim.tag[18].nic  TagReceivedAcknowledgement  ETV
vector 1386  _01_RfidSim.tag[263].nic  TagReceivedAcknowledgement  ETV
vector 1270  _01_RfidSim.tag[234].nic  TagReceivedAcknowledgement  ETV
vector 350  _01_RfidSim.tag[4].nic  TagReceivedAcknowledgement  ETV
vector 518  _01_RfidSim.tag[46].nic  TagReceivedAcknowledgement  ETV
vector 1114  _01_RfidSim.tag[195].nic  TagReceivedAcknowledgement  ETV
vector 1370  _01_RfidSim.tag[259].nic  TagReceivedAcknowledgement  ETV
vector 486  _01_RfidSim.tag[38].nic  TagReceivedAcknowledgement  ETV
vector 842  _01_RfidSim.tag[127].nic  TagReceivedAcknowledgement  ETV
vector 1066  _01_RfidSim.tag[183].nic  TagReceivedAcknowledgement  ETV
vector 1294  _01_RfidSim.tag[240].nic  TagReceivedAcknowledgement  ETV
vector 414  _01_RfidSim.tag[20].nic  TagReceivedAcknowledgement  ETV
vector 866  _01_RfidSim.tag[133].nic  TagReceivedAcknowledgement  ETV
vector 418  _01_RfidSim.tag[21].nic  TagReceivedAcknowledgement  ETV
vector 1046  _01_RfidSim.tag[178].nic  TagReceivedAcknowledgement  ETV
vector 998  _01_RfidSim.tag[166].nic  TagReceivedAcknowledgement  ETV
vector 1302  _01_RfidSim.tag[242].nic  TagReceivedAcknowledgement  ETV
vector 702  _01_RfidSim.tag[92].nic  TagReceivedAcknowledgement  ETV
vector 930  _01_RfidSim.tag[149].nic  TagReceivedAcknowledgement  ETV
vector 1298  _01_RfidSim.tag[241].nic  TagReceivedAcknowledgement  ETV
vector 770  _01_RfidSim.tag[109].nic  TagReceivedAcknowledgement  ETV
vector 870  _01_RfidSim.tag[134].nic  TagReceivedAcknowledgement  ETV
vector 838  _01_RfidSim.tag[126].nic  TagReceivedAcknowledgement  ETV
vector 1070  _01_RfidSim.tag[184].nic  TagReceivedAcknowledgement  ETV
vector 950  _01_RfidSim.tag[154].nic  TagReceivedAcknowledgement  ETV
vector 710  _01_RfidSim.tag[94].nic  TagReceivedAcknowledgement  ETV
vector 1006  _01_RfidSim.tag[168].nic  TagReceivedAcknowledgement  ETV
vector 438  _01_RfidSim.tag[26].nic  TagReceivedAcknowledgement  ETV
vector 994  _01_RfidSim.tag[165].nic  TagReceivedAcknowledgement  ETV
vector 1362  _01_RfidSim.tag[257].nic  TagReceivedAcknowledgement  ETV
vector 778  _01_RfidSim.tag[111].nic  TagReceivedAcknowledgement  ETV
vector 1002  _01_RfidSim.tag[167].nic  TagReceivedAcknowledgement  ETV
vector 1434  _01_RfidSim.tag[275].nic  TagReceivedAcknowledgement  ETV
vector 1050  _01_RfidSim.tag[179].nic  TagReceivedAcknowledgement  ETV
vector 802  _01_RfidSim.tag[117].nic  TagReceivedAcknowledgement  ETV
vector 750  _01_RfidSim.tag[104].nic  TagReceivedAcknowledgement  ETV
vector 914  _01_RfidSim.tag[145].nic  TagReceivedAcknowledgement  ETV
vector 594  _01_RfidSim.tag[65].nic  TagReceivedAcknowledgement  ETV
vector 882  _01_RfidSim.tag[137].nic  TagReceivedAcknowledgement  ETV
vector 846  _01_RfidSim.tag[128].nic  TagReceivedAcknowledgement  ETV
vector 798  _01_RfidSim.tag[116].nic  TagReceivedAcknowledgement  ETV
vector 886  _01_RfidSim.tag[138].nic  TagReceivedAcknowledgement  ETV
vector 982  _01_RfidSim.tag[162].nic  TagReceivedAcknowledgement  ETV
vector 934  _01_RfidSim.tag[150].nic  TagReceivedAcknowledgement  ETV
vector 818  _01_RfidSim.tag[121].nic  TagReceivedAcknowledgement  ETV
vector 790  _01_RfidSim.tag[114].nic  TagReceivedAcknowledgement  ETV
vector 1438  _01_RfidSim.tag[276].nic  TagReceivedAcknowledgement  ETV
vector 794  _01_RfidSim.tag[115].nic  TagReceivedAcknowledgement  ETV
vector 978  _01_RfidSim.tag[161].nic  TagReceivedAcknowledgement  ETV
vector 726  _01_RfidSim.tag[98].nic  TagReceivedAcknowledgement  ETV
vector 1366  _01_RfidSim.tag[258].nic  TagReceivedAcknowledgement  ETV
vector 1118  _01_RfidSim.tag[196].nic  TagReceivedAcknowledgement  ETV
vector 814  _01_RfidSim.tag[120].nic  TagReceivedAcknowledgement  ETV
vector 862  _01_RfidSim.tag[132].nic  TagReceivedAcknowledgement  ETV
vector 1090  _01_RfidSim.tag[189].nic  TagReceivedAcknowledgement  ETV
vector 1062  _01_RfidSim.tag[182].nic  TagReceivedAcknowledgement  ETV
vector 1334  _01_RfidSim.tag[250].nic  TagReceivedAcknowledgement  ETV
vector 1042  _01_RfidSim.tag[177].nic  TagReceivedAcknowledgement  ETV
vector 1474  _01_RfidSim.tag[285].nic  TagReceivedAcknowledgement  ETV
vector 1018  _01_RfidSim.tag[171].nic  TagReceivedAcknowledgement  ETV
vector 774  _01_RfidSim.tag[110].nic  TagReceivedAcknowledgement  ETV
vector 958  _01_RfidSim.tag[156].nic  TagReceivedAcknowledgement  ETV
vector 1402  _01_RfidSim.tag[267].nic  TagReceivedAcknowledgement  ETV
vector 822  _01_RfidSim.tag[122].nic  TagReceivedAcknowledgement  ETV
vector 682  _01_RfidSim.tag[87].nic  TagReceivedAcknowledgement  ETV
vector 758  _01_RfidSim.tag[106].nic  TagReceivedAcknowledgement  ETV
vector 962  _01_RfidSim.tag[157].nic  TagReceivedAcknowledgement  ETV
vector 894  _01_RfidSim.tag[140].nic  TagReceivedAcknowledgement  ETV
vector 1022  _01_RfidSim.tag[172].nic  TagReceivedAcknowledgement  ETV
vector 1030  _01_RfidSim.tag[174].nic  TagReceivedAcknowledgement  ETV
vector 746  _01_RfidSim.tag[103].nic  TagReceivedAcknowledgement  ETV
vector 1094  _01_RfidSim.tag[190].nic  TagReceivedAcknowledgement  ETV
vector 1026  _01_RfidSim.tag[173].nic  TagReceivedAcknowledgement  ETV
vector 890  _01_RfidSim.tag[139].nic  TagReceivedAcknowledgement  ETV
vector 754  _01_RfidSim.tag[105].nic  TagReceivedAcknowledgement  ETV
300	21275 418 4738 82653 0.002713046263 0.038320601983 14 309 309 4326 1336734
304	21693 356 5453 97926 0.003023769806 0.04620523465 12 316 316 3792 1198272
308	22049 420 22854 108550 0.010943579491 0.05177541881 14 323 323 4522 1460606
312	22469 710 17463 149114 0.008522988916 0.091100606983 23 330 330 7590 2504700
316	23179 592 51292 134748 0.023897325898 0.06712523465 20 337 337 6740 2271380
320	23771 560 4079 129114 0.002490689867 0.06283541881 19 344 344 6536 2248384
324	24331 392 3879 123582 0.002299483981 0.059924605983 13 351 351 4563 1601613
328	24723 327 6411 69041 0.003465324898 0.03216923465 11 358 358 3938 1409804
332	25050 409 15008 136317 0.00745141681 0.06845541881 14 365 365 5110 1865150
338	25459 30 22166 22166 0.010547914747 0.010547914747 1 379 379 379 143641
339	25489 23 1917 1917 0.001064 0.001064 1 379 379 379 143641
342	25512 30 14502 14502 0.007197046263 0.007197046263 1 386 386 386 148996
343	25542 23 1921 1921 0.001064 0.001064 1 386 386 386 148996
346	25565 30 61645 61645 0.028624601983 0.028624601983 1 393 393 393 154449
347	25595 23 1925 1925 0.001064 0.001064 1 393 393 393 154449
350	25618 30 72779 72779 0.033744601983 0.033744601983 1 400 400 400 160000
351	25648 23 1929 1929 0.001064 0.001064 1 400 400 400 160000
362	25671 30 12796 12796 0.006487769806 0.006487769806 1 421 421 421 177241
363	25701 23 1609 1609 0.000944 0.000944 1 421 421 421 177241
366	25724 30 16369 16369 0.008107769806 0.008107769806 1 428 428 428 183184
367	25754 23 1613 1613 0.000944 0.000944 1 428 428 428 183184
370	25777 30 20207 20207 0.009707769806 0.009707769806 1 435 435 435 189225
371	25807 23 1617 1617 0.000944 0.000944 1 435 435 435 189225
382	25830 30 54664 54664 0.025267579491 0.025267579491 1 456 456 456 207936
383	25860 29 9690 9690 0.005024689867 0.005024689867 1 456 456 456 207936
386	25889 30 27652 27652 0.012767579491 0.012767579491 1 463 463 463 214369
387	25919 29 9694 9694 0.005024689867 0.005024689867 1 463 463 463 214369
390	25948 30 61550 61550 0.028527579491 0.028527579491 1 470 470 470 220900
391	25978 29 9698 9698 0.005024689867 0.005024689867 1 470 470 470 220900
394	26007 30 23804 23804 0.011247579491 0.011247579491 1 477 477 477 227529
395	26037 29 9702 9702 0.005024689867 0.005024689867 1 477 477 477 227529
406	26066 30 69149 69149 0.032184601983 0.032184601983 1 498 498 498 248004
407	26096 23 1936 1936 0.001064 0.001064 1 498 498 498 248004
410	26119 30 58458 58458 0.027084601983 0.027084601983 1 505 505 505 255025
411	26149 23 1940 1940 0.001064 0.001064 1 505 505 505 255025
414	26172 30 79795 79795 0.036984601983 0.036984601983 1 512 512 512 262144
415	26202 23 1944 1944 0.001064 0.001064 1 512 512 512 262144
418	26225 30 83111 83111 0.038624601983 0.038624601983 1 519 519 519 269361
419	26255 23 1948 1948 0.001064 0.001064 1 519 519 519 269361
430	26278 30 39261 39261 0.017747769806 0.017747769806 1 540 540 540 291600
431	26308 23 1627 1627 0.000944 0.000944 1 540 540 540 291600
434	26331 30 31858 31858 0.014487769806 0.014487769806 1 547 547 547 299209
435	26361 23 1631 1631 0.000944 0.000944 1 547 547 547 299209
438	26384 29 98703 98703 0.04650923465 0.04650923465 1 554 554 554 306916
439	26413 23 1635 1635 0.000944 0.000944 1 554 554 554 306916
450	26436 30 58276 58276 0.026887579491 0.026887579491 1 575 575 575 330625
451	26466 29 9709 9709 0.005024689867 0.005024689867 1 575 575 575 330625
454	26495 30 42065 42065 0.019307579491 0.019307579491 1 582 582 582 338724
455	26525 29 9713 9713 0.005024689867 0.005024689867 1 582 582 582 338724
458	26554 30 31976 31976 0.014507579491 0.014507579491 1 589 589 589 346921
459	26584 29 9717 9717 0.005024689867 0.005024689867 1 589 589 589 346921
462	26613 30 50551 50551 0.023667579491 0.023667579491 1 596 596 596 355216
463	26643 29 9721 9721 0.005024689867 0.005024689867 1 596 596 596 355216
474	26672 30 65346 65346 0.030164601983 0.030164601983 1 617 617 617 380689
475	26702 23 1955 1955 0.001064 0.001064 1 617 617 617 380689
478	26725 30 26107 26107 0.012076974795 0.012076974795 1 624 624 624 389376
479	26755 23 1959 1959 0.001064 0.001064 1 624 624 624 389376
482	26778 30 50312 50312 0.023624601983 0.023624601983 1 631 631 631 398161
483	26808 23 1963 1963 0.001064 0.001064 1 631 631 631 398161
486	26831 30 76301 76301 0.035304601983 0.035304601983 1 638 638 638 407044
487	26861 23 1967 1967 0.001064 0.001064 1 638 638 638 407044
498	26884 29 66052 66052 0.03053323465 0.03053323465 1 659 659 659 434281
499	26913 23 1645 1645 0.000944 0.000944 1 659 659 659 434281
502	26936 29 5920 5920 0.003327769806 0.003327769806 1 666 666 666 443556
503	26965 23 1649 1649 0.000944 0.000944 1 666 666 666 443556
506	26988 30 24019 24019 0.011267769806 0.011267769806 1 673 673 673 452929
507	27018 23 1653 1653 0.000944 0.000944 1 673 673 673 452929
518	27041 30 73029 73029 0.033847579491 0.033847579491 1 694 694 694 481636
519	27071 29 9728 9728 0.005024689867 0.005024689867 1 694 694 694 481636
522	27100 30 38764 38764 0.017667579491 0.017667579491 1 701 701 701 491401
523	27130 29 9732 9732 0.005024689867 0.005024689867 1 701 701 701 491401
526	27159 30 35323 35323 0.016047579491 0.016047579491 1 708 708 708 501264
527	27189 29 9736 9736 0.005024689867 0.005024689867 1 708 708 708 501264
530	27218 30 68444 68444 0.031827579491 0.031827579491 1 715 715 715 511225
531	27248 29 9740 9740 0.005024689867 0.005024689867 1 715 715 715 511225
546	27277 29 5418 5418 0.003017046263 0.003017046263 1 743 743 743 552049
547	27306 23 1975 1975 0.001064 0.001064 1 743 743 743 552049
550	27329 29 9928 9928 0.005077046263 0.005077046263 1 750 750 750 562500
551	27358 23 1979 1979 0.001064 0.001064 1 750 750 750 562500
566	27381 30 27982 27982 0.012827769806 0.012827769806 1 778 778 778 605284
567	27411 23 1663 1663 0.000944 0.000944 1 778 778 778 605284
570	27434 30 35446 35446 0.016127769806 0.016127769806 1 785 785 785 616225
571	27464 23 1667 1667 0.000944 0.000944 1 785 785 785 616225
574	27487 29 9305 9305 0.004907769806 0.004907769806 1 792 792 792 627264
575	27516 23 1671 1671 0.000944 0.000944 1 792 792 792 627264
590	27539 30 45057 45057 0.020927579491 0.020927579491 1 820 820 820 672400
591	27569 29 9748 9748 0.005024689867 0.005024689867 1 820 820 820 672400
594	27598 30 109250 109250 0.05207941881 0.05207941881 1 827 827 827 683929
595	27628 29 9752 9752 0.005024689867 0.005024689867 1 827 827 827 683929
682	27657 31 138877 138877 0.072104606983 0.072104606983 1 981 981 981 962361
683	27688 29 6520 6520 0.003547046263 0.003547046263 1 981 981 981 962361
687	27717 29 6524 6524 0.003547046263 0.003547046263 1 988 988 988 976144
702	27746 30 86294 86294 0.04034923465 0.04034923465 1 1016 1016 1016 1032256
703	27776 31 44630 44630 0.020871325898 0.020871325898 1 1016 1016 1016 1032256
706	27807 30 62390 62390 0.02901323465 0.02901323465 1 1023 1023 1023 1046529
707	27837 31 44634 44634 0.020871325898 0.020871325898 1 1023 1023 1023 1046529
710	27868 30 95881 95881 0.04498923465 0.04498923465 1 1030 1030 1030 1060900
711	27898 31 44638 44638 0.020871325898 0.020871325898 1 1030 1030 1030 1060900
726	27929 31 124097 124097 0.06001941881 0.06001941881 1 1058 1058 1058 1119364
727	27960 24 1764 1764 0.001004 0.001004 1 1058 1058 1058 1119364
730	27984 30 8408 8408 0.004494689867 0.004494689867 1 1065 1065 1065 1134225
731	28014 24 1768 1768 0.001004 0.001004 1 1065 1065 1065 1134225
746	28038 32 145174 145174 0.081784606983 0.081784606983 1 1093 1093 1093 1194649
747	28070 30 6532 6532 0.003547046263 0.003547046263 1 1093 1093 1093 1194649
750	28100 32 106528 106528 0.050692604983 0.050692604983 1 1100 1100 1100 1210000
751	28132 30 6536 6536 0.003547046263 0.003547046263 1 1100 1100 1100 1210000
754	28162 32 149305 149305 0.091404606983 0.091404606983 1 1107 1107 1107 1225449
755	28194 30 6540 6540 0.003547046263 0.003547046263 1 1107 1107 1107 1225449
758	28224 32 139983 139983 0.073724606983 0.073724606983 1 1114 1114 1114 1240996
759	28256 30 6544 6544 0.003547046263 0.003547046263 1 1114 1114 1114 1240996
770	28286 30 89397 89397 0.04190923465 0.04190923465 1 1135 1135 1135 1288225
771	28316 31 44648 44648 0.020871325898 0.020871325898 1 1135 1135 1135 1288225
774	28347 31 135038 135038 0.06742923465 0.06742923465 1 1142 1142 1142 1304164
775	28378 31 44652 44652 0.020871325898 0.020871325898 1 1142 1142 1142 1304164
778	28409 31 102258 102258 0.04870923465 0.04870923465 1 1149 1149 1149 1320201
779	28440 31 44656 44656 0.020871325898 0.020871325898 1 1149 1149 1149 1320201