version 2
run Experiment1_2staticReaders_81TagsGrid-0-20150406-10:06:44-13584
attr configname Experiment1_2staticReaders_81TagsGrid
attr datetime 20150406-10:06:44
attr experiment Experiment1_2staticReaders_81TagsGrid
attr inifile omnetpp.ini
attr iterationvars ""
attr iterationvars2 $repetition=0
attr measurement ""
attr network _01_RfidSim
attr processid 13584
attr repetition 0
attr replication #0
attr resultdir results
attr runnumber 0
attr seedset 0

vector 415  _01_RfidSim.reader[0].nic.phy  RadioState  ETV
vector 416  _01_RfidSim.reader[0].nic.phy  RadioChannel  ETV
vector 417  _01_RfidSim.reader[1].nic.phy  RadioState  ETV
vector 418  _01_RfidSim.reader[1].nic.phy  RadioChannel  ETV
vector 168  _01_RfidSim.tag[19].nic  TagReceivedQuery  ETV
vector 204  _01_RfidSim.tag[28].nic  TagReceivedQuery  ETV
vector 208  _01_RfidSim.tag[29].nic  TagReceivedQuery  ETV
vector 240  _01_RfidSim.tag[37].nic  TagReceivedQuery  ETV
vector 244  _01_RfidSim.tag[38].nic  TagReceivedQuery  ETV
vector 276  _01_RfidSim.tag[46].nic  TagReceivedQuery  ETV
vector 280  _01_RfidSim.tag[47].nic  TagReceivedQuery  ETV
vector 312  _01_RfidSim.tag[55].nic  TagReceivedQuery  ETV
vector 192  _01_RfidSim.tag[25].nic  TagReceivedQuery  ETV
vector 224  _01_RfidSim.tag[33].nic  TagReceivedQuery  ETV
vector 228  _01_RfidSim.tag[34].nic  TagReceivedQuery  ETV
vector 260  _01_RfidSim.tag[42].nic  TagReceivedQuery  ETV
vector 264  _01_RfidSim.tag[43].nic  TagReceivedQuery  ETV
vector 296  _01_RfidSim.tag[51].nic  TagReceivedQuery  ETV
vector 300  _01_RfidSim.tag[52].nic  TagReceivedQuery  ETV
vector 336  _01_RfidSim.tag[61].nic  TagReceivedQuery  ETV
vector 89  _01_RfidSim.reader[1].nic  ReaderSendAcknowledgement  ETV
vector 191  _01_RfidSim.tag[25].nic  TagReceivedAcknowledgement  ETV
vector 85  _01_RfidSim.reader[0].nic  ReaderSendAcknowledgement  ETV
vector 167  _01_RfidSim.tag[19].nic  TagReceivedAcknowledgement  ETV
vector 223  _01_RfidSim.tag[33].nic  TagReceivedAcknowledgement  ETV
vector 279  _01_RfidSim.tag[47].nic  TagReceivedAcknowledgement  ETV
vector 207  _01_RfidSim.tag[29].nic  TagReceivedAcknowledgement  ETV
vector 299  _01_RfidSim.tag[52].nic  TagReceivedAcknowledgement  ETV
vector 311  _01_RfidSim.tag[55].nic  TagReceivedAcknowledgement  ETV
vector 295  _01_RfidSim.tag[51].nic  TagReceivedAcknowledgement  ETV
vector 239  _01_RfidSim.tag[37].nic  TagReceivedAcknowledgement  ETV
vector 227  _01_RfidSim.tag[34].nic  TagReceivedAcknowledgement  ETV
vector 203  _01_RfidSim.tag[28].nic  TagReceivedAcknowledgement  ETV
vector 263  _01_RfidSim.tag[43].nic  TagReceivedAcknowledgement  ETV
vector 243  _01_RfidSim.tag[38].nic  TagReceivedAcknowledgement  ETV
vector 335  _01_RfidSim.tag[61].nic  TagReceivedAcknowledgement  ETV
vector 275  _01_RfidSim.tag[46].nic  TagReceivedAcknowledgement  ETV
vector 259  _01_RfidSim.tag[42].nic  TagReceivedAcknowledgement  ETV
85	1115	0.004793894911	94
85	1787	0.006393894911	94
85	2341	0.007973894911	94
85	3012	0.009553894911	94
85	3846	0.011113894911	94
85	4523	0.013073894911	94
85	5278	0.014673894911	94
85	5875	0.016413894911	94
89	732	0.002321075505	101
89	1560	0.005778080957	101
89	2421	0.008000419264	101
89	3097	0.009641066914	101
89	3987	0.011421066914	101
89	4606	0.013141066914	101
89	5417	0.015021066914	101
89	6110	0.017141066914	101
167	1259	0.005097894911	241
168	381	0.000864	241
191	792	0.002625075505	283
192	438	0.000864	283
203	4668	0.013377894911	304
204	388	0.000864	304
207	2485	0.008277894911	311
208	392	0.000864	311
223	1704	0.006082080957	339
224	444	0.000864	339
227	4059	0.011725066914	346
228	448	0.000864	346
239	3961	0.011417894911	367
240	398	0.000864	367
243	5353	0.014977894911	374
244	402	0.000864	374
259	6179	0.017445066914	402
260	454	0.000864	402
263	4735	0.013445066914	409
264	458	0.000864	409
275	6034	0.016717894911	430
276	408	0.000864	430
279	1869	0.006697894911	437
280	412	0.000864	437
295	3234	0.009945066914	465
296	464	0.000864	465
299	2559	0.008304419264	472
300	468	0.000864	472
311	3182	0.009857894911	493
312	418	0.000864	493
335	5537	0.015325066914	535
336	475	0.000864	535
415	0	0	0
415	181	0.000384	3
415	181	0.000384	1
415	369	0.000864	3
415	369	0.000864	0
415	926	0.003989894911	3
415	926	0.003989894911	1
415	961	0.004293894911	3
415	961	0.004293894911	0
415	1115	0.004793894911	3
415	1115	0.004793894911	1
415	1249	0.005097894911	3
415	1249	0.005097894911	0
415	1475	0.005589894911	3
415	1475	0.005589894911	1
415	1595	0.005893894911	3
415	1595	0.005893894911	0
415	1787	0.006393894911	3
415	1787	0.006393894911	1
415	1836	0.006697894911	3
415	1836	0.006697894911	0
415	2009	0.007169894911	3
415	2009	0.007169894911	1
415	2128	0.007473894911	3
415	2128	0.007473894911	0
415	2341	0.007973894911	3
415	2341	0.007973894911	1
415	2468	0.008277894911	3
415	2468	0.008277894911	0
415	2698	0.008749894911	3
415	2698	0.008749894911	1
415	2816	0.009053894911	3
415	2816	0.009053894911	0
415	3012	0.009553894911	3
415	3012	0.009553894911	1
415	3146	0.009857894911	3
415	3146	0.009857894911	0
415	3482	0.010309894911	3
415	3482	0.010309894911	1
415	3608	0.010613894911	3
415	3608	0.010613894911	0
415	3846	0.011113894911	3
415	3846	0.011113894911	1
415	3939	0.011417894911	3
415	3939	0.011417894911	0
415	4209	0.012269894911	3
415	4209	0.012269894911	1
415	4325	0.012573894911	3
415	4325	0.012573894911	0
415	4523	0.013073894911	3
415	4523	0.013073894911	1
415	4653	0.013377894911	3
415	4653	0.013377894911	0
415	4958	0.013869894911	3
415	4958	0.013869894911	1
415	4995	0.014173894911	3
415	4995	0.014173894911	0
415	5278	0.014673894911	3
415	5278	0.014673894911	1
415	5329	0.014977894911	3
415	5329	0.014977894911	0
415	5592	0.015609894911	3
415	5592	0.015609894911	1
415	5629	0.015913894911	3
415	5629	0.015913894911	0
415	5875	0.016413894911	3
415	5875	0.016413894911	1
415	6005	0.016717894911	3
415	6005	0.016717894911	0
416	0	0	1
417	0	0	0
417	182	0.000384	3
417	182	0.000384	1
417	370	0.000864	3
417	370	0.000864	0
417	579	0.001517075505	3
417	579	0.001517075505	1
417	616	0.001821075505	3
417	616	0.001821075505	0
417	732	0.002321075505	3
417	732	0.002321075505	1
417	781	0.002625075505	3
417	781	0.002625075505	0
417	1200	0.004974080957	3
417	1200	0.004974080957	1
417	1343	0.005278080957	3
417	1343	0.005278080957	0
417	1560	0.005778080957	3
417	1560	0.005778080957	1
417	1689	0.006082080957	3
417	1689	0.006082080957	0
417	2089	0.007196419264	3
417	2089	0.007196419264	1
417	2210	0.007500419264	3
417	2210	0.007500419264	0
417	2421	0.008000419264	3
417	2421	0.008000419264	1
417	2529	0.008304419264	3
417	2529	0.008304419264	0
417	2781	0.008837066914	3
417	2781	0.008837066914	1
417	2890	0.009141066914	3
417	2890	0.009141066914	0
417	3097	0.009641066914	3
417	3097	0.009641066914	1
417	3205	0.009945066914	3
417	3205	0.009945066914	0
417	3652	0.010617066914	3
417	3652	0.010617066914	1
417	3723	0.010921066914	3
417	3723	0.010921066914	0
417	3987	0.011421066914	3
417	3987	0.011421066914	1
417	4042	0.011725066914	3
417	4042	0.011725066914	0
417	4290	0.012337066914	3
417	4290	0.012337066914	1
417	4400	0.012641066914	3
417	4400	0.012641066914	0
417	4606	0.013141066914	3
417	4606	0.013141066914	1
417	4710	0.013445066914	3
417	4710	0.013445066914	0
417	5118	0.014217066914	3
417	5118	0.014217066914	1
417	5153	0.014521066914	3
417	5153	0.014521066914	0
417	5417	0.015021066914	3
417	5417	0.015021066914	1
417	5502	0.015325066914	3
417	5502	0.015325066914	0
417	5795	0.016337066914	3
417	5795	0.016337066914	1
417	5910	0.016641066914	3
417	5910	0.016641066914	0
417	6110	0.017141066914	3
417	6110	0.017141066914	1
417	6159	0.017445066914	3
417	6159	0.017445066914	0
418	0	0	1
