version 2
run Experiment7_49staticReaders_81TagsGrid-0-20150406-10:11:02-19340
attr configname Experiment7_49staticReaders_81TagsGrid
attr datetime 20150406-10:11:02
attr experiment Experiment7_49staticReaders_81TagsGrid
attr inifile omnetpp.ini
attr iterationvars ""
attr iterationvars2 $repetition=0
attr measurement ""
attr network _01_RfidSim
attr processid 19340
attr repetition 0
attr replication #0
attr resultdir results
attr runnumber 0
attr seedset 0

vector 650  _01_RfidSim.reader[0].nic.phy  RadioState  ETV
vector 651  _01_RfidSim.reader[0].nic.phy  RadioChannel  ETV
vector 652  _01_RfidSim.reader[1].nic.phy  RadioState  ETV
vector 653  _01_RfidSim.reader[1].nic.phy  RadioChannel  ETV
vector 654  _01_RfidSim.reader[2].nic.phy  RadioState  ETV
vector 655  _01_RfidSim.reader[2].nic.phy  RadioChannel  ETV
vector 656  _01_RfidSim.reader[3].nic.phy  RadioState  ETV
vector 657  _01_RfidSim.reader[3].nic.phy  RadioChannel  ETV
vector 658  _01_RfidSim.reader[4].nic.phy  RadioState  ETV
vector 659  _01_RfidSim.reader[4].nic.phy  RadioChannel  ETV
vector 660  _01_RfidSim.reader[5].nic.phy  RadioState  ETV
vector 661  _01_RfidSim.reader[5].nic.phy  RadioChannel  ETV
vector 662  _01_RfidSim.reader[6].nic.phy  RadioState  ETV
vector 663  _01_RfidSim.reader[6].nic.phy  RadioChannel  ETV
vector 664  _01_RfidSim.reader[7].nic.phy  RadioState  ETV
vector 665  _01_RfidSim.reader[7].nic.phy  RadioChannel  ETV
vector 666  _01_RfidSim.reader[8].nic.phy  RadioState  ETV
vector 667  _01_RfidSim.reader[8].nic.phy  RadioChannel  ETV
vector 668  _01_RfidSim.reader[9].nic.phy  RadioState  ETV
vector 669  _01_RfidSim.reader[9].nic.phy  RadioChannel  ETV
vector 670  _01_RfidSim.reader[10].nic.phy  RadioState  ETV
vector 671  _01_RfidSim.reader[10].nic.phy  RadioChannel  ETV
vector 672  _01_RfidSim.reader[11].nic.phy  RadioState  ETV
vector 673  _01_RfidSim.reader[11].nic.phy  RadioChannel  ETV
vector 674  _01_RfidSim.reader[12].nic.phy  RadioState  ETV
vector 675  _01_RfidSim.reader[12].nic.phy  RadioChannel  ETV
vector 676  _01_RfidSim.reader[13].nic.phy  RadioState  ETV
vector 677  _01_RfidSim.reader[13].nic.phy  RadioChannel  ETV
vector 678  _01_RfidSim.reader[14].nic.phy  RadioState  ETV
vector 679  _01_RfidSim.reader[14].nic.phy  RadioChannel  ETV
vector 680  _01_RfidSim.reader[15].nic.phy  RadioState  ETV
vector 681  _01_RfidSim.reader[15].nic.phy  RadioChannel  ETV
vector 682  _01_RfidSim.reader[16].nic.phy  RadioState  ETV
vector 683  _01_RfidSim.reader[16].nic.phy  RadioChannel  ETV
vector 684  _01_RfidSim.reader[17].nic.phy  RadioState  ETV
vector 685  _01_RfidSim.reader[17].nic.phy  RadioChannel  ETV
vector 686  _01_RfidSim.reader[18].nic.phy  RadioState  ETV
vector 687  _01_RfidSim.reader[18].nic.phy  RadioChannel  ETV
vector 688  _01_RfidSim.reader[19].nic.phy  RadioState  ETV
vector 689  _01_RfidSim.reader[19].nic.phy  RadioChannel  ETV
vector 690  _01_RfidSim.reader[20].nic.phy  RadioState  ETV
vector 691  _01_RfidSim.reader[20].nic.phy  RadioChannel  ETV
vector 692  _01_RfidSim.reader[21].nic.phy  RadioState  ETV
vector 693  _01_RfidSim.reader[21].nic.phy  RadioChannel  ETV
vector 694  _01_RfidSim.reader[22].nic.phy  RadioState  ETV
vector 695  _01_RfidSim.reader[22].nic.phy  RadioChannel  ETV
vector 696  _01_RfidSim.reader[23].nic.phy  RadioState  ETV
vector 697  _01_RfidSim.reader[23].nic.phy  RadioChannel  ETV
vector 698  _01_RfidSim.reader[24].nic.phy  RadioState  ETV
vector 699  _01_RfidSim.reader[24].nic.phy  RadioChannel  ETV
vector 700  _01_RfidSim.reader[25].nic.phy  RadioState  ETV
vector 701  _01_RfidSim.reader[25].nic.phy  RadioChannel  ETV
vector 702  _01_RfidSim.reader[26].nic.phy  RadioState  ETV
vector 703  _01_RfidSim.reader[26].nic.phy  RadioChannel  ETV
vector 704  _01_RfidSim.reader[27].nic.phy  RadioState  ETV
vector 705  _01_RfidSim.reader[27].nic.phy  RadioChannel  ETV
vector 706  _01_RfidSim.reader[28].nic.phy  RadioState  ETV
vector 707  _01_RfidSim.reader[28].nic.phy  RadioChannel  ETV
vector 708  _01_RfidSim.reader[29].nic.phy  RadioState  ETV
vector 709  _01_RfidSim.reader[29].nic.phy  RadioChannel  ETV
vector 710  _01_RfidSim.reader[30].nic.phy  RadioState  ETV
vector 711  _01_RfidSim.reader[30].nic.phy  RadioChannel  ETV
vector 712  _01_RfidSim.reader[31].nic.phy  RadioState  ETV
vector 713  _01_RfidSim.reader[31].nic.phy  RadioChannel  ETV
vector 714  _01_RfidSim.reader[32].nic.phy  RadioState  ETV
vector 715  _01_RfidSim.reader[32].nic.phy  RadioChannel  ETV
vector 716  _01_RfidSim.reader[33].nic.phy  RadioState  ETV
vector 717  _01_RfidSim.reader[33].nic.phy  RadioChannel  ETV
vector 718  _01_RfidSim.reader[34].nic.phy  RadioState  ETV
vector 719  _01_RfidSim.reader[34].nic.phy  RadioChannel  ETV
vector 720  _01_RfidSim.reader[35].nic.phy  RadioState  ETV
vector 721  _01_RfidSim.reader[35].nic.phy  RadioChannel  ETV
vector 722  _01_RfidSim.reader[36].nic.phy  RadioState  ETV
vector 723  _01_RfidSim.reader[36].nic.phy  RadioChannel  ETV
vector 724  _01_RfidSim.reader[37].nic.phy  RadioState  ETV
vector 725  _01_RfidSim.reader[37].nic.phy  RadioChannel  ETV
vector 726  _01_RfidSim.reader[38].nic.phy  RadioState  ETV
vector 727  _01_RfidSim.reader[38].nic.phy  RadioChannel  ETV
vector 728  _01_RfidSim.reader[39].nic.phy  RadioState  ETV
vector 729  _01_RfidSim.reader[39].nic.phy  RadioChannel  ETV
vector 730  _01_RfidSim.reader[40].nic.phy  RadioState  ETV
vector 731  _01_RfidSim.reader[40].nic.phy  RadioChannel  ETV
vector 732  _01_RfidSim.reader[41].nic.phy  RadioState  ETV
vector 733  _01_RfidSim.reader[41].nic.phy  RadioChannel  ETV
vector 734  _01_RfidSim.reader[42].nic.phy  RadioState  ETV
vector 735  _01_RfidSim.reader[42].nic.phy  RadioChannel  ETV
vector 736  _01_RfidSim.reader[43].nic.phy  RadioState  ETV
vector 737  _01_RfidSim.reader[43].nic.phy  RadioChannel  ETV
vector 738  _01_RfidSim.reader[44].nic.phy  RadioState  ETV
vector 739  _01_RfidSim.reader[44].nic.phy  RadioChannel  ETV
vector 740  _01_RfidSim.reader[45].nic.phy  RadioState  ETV
vector 741  _01_RfidSim.reader[45].nic.phy  RadioChannel  ETV
vector 742  _01_RfidSim.reader[46].nic.phy  RadioState  ETV
vector 743  _01_RfidSim.reader[46].nic.phy  RadioChannel  ETV
vector 744  _01_RfidSim.reader[47].nic.phy  RadioState  ETV
vector 745  _01_RfidSim.reader[47].nic.phy  RadioChannel  ETV
vector 746  _01_RfidSim.reader[48].nic.phy  RadioState  ETV
vector 747  _01_RfidSim.reader[48].nic.phy  RadioChannel  ETV
vector 135  _01_RfidSim.reader[1].nic  TagReceivedQuery  ETV
vector 139  _01_RfidSim.reader[2].nic  TagReceivedQuery  ETV
vector 159  _01_RfidSim.reader[7].nic  TagReceivedQuery  ETV
vector 163  _01_RfidSim.reader[8].nic  TagReceivedQuery  ETV
vector 187  _01_RfidSim.reader[14].nic  TagReceivedQuery  ETV
vector 191  _01_RfidSim.reader[15].nic  TagReceivedQuery  ETV
vector 327  _01_RfidSim.tag[0].nic  TagReceivedQuery  ETV
vector 331  _01_RfidSim.tag[1].nic  TagReceivedQuery  ETV
vector 335  _01_RfidSim.tag[2].nic  TagReceivedQuery  ETV
vector 367  _01_RfidSim.tag[10].nic  TagReceivedQuery  ETV
vector 143  _01_RfidSim.reader[3].nic  TagReceivedQuery  ETV
vector 151  _01_RfidSim.reader[5].nic  TagReceivedQuery  ETV
vector 155  _01_RfidSim.reader[6].nic  TagReceivedQuery  ETV
vector 171  _01_RfidSim.reader[10].nic  TagReceivedQuery  ETV
vector 175  _01_RfidSim.reader[11].nic  TagReceivedQuery  ETV
vector 179  _01_RfidSim.reader[12].nic  TagReceivedQuery  ETV
vector 199  _01_RfidSim.reader[17].nic  TagReceivedQuery  ETV
vector 203  _01_RfidSim.reader[18].nic  TagReceivedQuery  ETV
vector 343  _01_RfidSim.tag[4].nic  TagReceivedQuery  ETV
vector 347  _01_RfidSim.tag[5].nic  TagReceivedQuery  ETV
vector 351  _01_RfidSim.tag[6].nic  TagReceivedQuery  ETV
vector 383  _01_RfidSim.tag[14].nic  TagReceivedQuery  ETV
vector 183  _01_RfidSim.reader[13].nic  TagReceivedQuery  ETV
vector 235  _01_RfidSim.reader[26].nic  TagReceivedQuery  ETV
vector 239  _01_RfidSim.reader[27].nic  TagReceivedQuery  ETV
vector 263  _01_RfidSim.reader[33].nic  TagReceivedQuery  ETV
vector 267  _01_RfidSim.reader[34].nic  TagReceivedQuery  ETV
vector 391  _01_RfidSim.tag[16].nic  TagReceivedQuery  ETV
vector 423  _01_RfidSim.tag[24].nic  TagReceivedQuery  ETV
vector 427  _01_RfidSim.tag[25].nic  TagReceivedQuery  ETV
vector 431  _01_RfidSim.tag[26].nic  TagReceivedQuery  ETV
vector 459  _01_RfidSim.tag[33].nic  TagReceivedQuery  ETV
vector 463  _01_RfidSim.tag[34].nic  TagReceivedQuery  ETV
vector 467  _01_RfidSim.tag[35].nic  TagReceivedQuery  ETV
vector 499  _01_RfidSim.tag[43].nic  TagReceivedQuery  ETV
vector 259  _01_RfidSim.reader[32].nic  TagReceivedQuery  ETV
vector 283  _01_RfidSim.reader[38].nic  TagReceivedQuery  ETV
vector 287  _01_RfidSim.reader[39].nic  TagReceivedQuery  ETV
vector 291  _01_RfidSim.reader[40].nic  TagReceivedQuery  ETV
vector 295  _01_RfidSim.reader[41].nic  TagReceivedQuery  ETV
vector 307  _01_RfidSim.reader[44].nic  TagReceivedQuery  ETV
vector 311  _01_RfidSim.reader[45].nic  TagReceivedQuery  ETV
vector 319  _01_RfidSim.reader[47].nic  TagReceivedQuery  ETV
vector 323  _01_RfidSim.reader[48].nic  TagReceivedQuery  ETV
vector 599  _01_RfidSim.tag[68].nic  TagReceivedQuery  ETV
vector 631  _01_RfidSim.tag[76].nic  TagReceivedQuery  ETV
vector 635  _01_RfidSim.tag[77].nic  TagReceivedQuery  ETV
vector 639  _01_RfidSim.tag[78].nic  TagReceivedQuery  ETV
vector 215  _01_RfidSim.reader[21].nic  TagReceivedQuery  ETV
vector 219  _01_RfidSim.reader[22].nic  TagReceivedQuery  ETV
vector 247  _01_RfidSim.reader[29].nic  TagReceivedQuery  ETV
vector 271  _01_RfidSim.reader[35].nic  TagReceivedQuery  ETV
vector 275  _01_RfidSim.reader[36].nic  TagReceivedQuery  ETV
vector 299  _01_RfidSim.reader[42].nic  TagReceivedQuery  ETV
vector 303  _01_RfidSim.reader[43].nic  TagReceivedQuery  ETV
vector 475  _01_RfidSim.tag[37].nic  TagReceivedQuery  ETV
vector 507  _01_RfidSim.tag[45].nic  TagReceivedQuery  ETV
vector 511  _01_RfidSim.tag[46].nic  TagReceivedQuery  ETV
vector 515  _01_RfidSim.tag[47].nic  TagReceivedQuery  ETV
vector 543  _01_RfidSim.tag[54].nic  TagReceivedQuery  ETV
vector 547  _01_RfidSim.tag[55].nic  TagReceivedQuery  ETV
vector 551  _01_RfidSim.tag[56].nic  TagReceivedQuery  ETV
vector 583  _01_RfidSim.tag[64].nic  TagReceivedQuery  ETV
vector 195  _01_RfidSim.reader[16].nic  TagReceivedQuery  ETV
vector 223  _01_RfidSim.reader[23].nic  TagReceivedQuery  ETV
vector 227  _01_RfidSim.reader[24].nic  TagReceivedQuery  ETV
vector 483  _01_RfidSim.tag[39].nic  TagReceivedQuery  ETV
vector 519  _01_RfidSim.tag[48].nic  TagReceivedQuery  ETV
vector 523  _01_RfidSim.tag[49].nic  TagReceivedQuery  ETV
vector 555  _01_RfidSim.tag[57].nic  TagReceivedQuery  ETV
vector 559  _01_RfidSim.tag[58].nic  TagReceivedQuery  ETV
vector 591  _01_RfidSim.tag[66].nic  TagReceivedQuery  ETV
vector 131  _01_RfidSim.reader[0].nic  TagReceivedQuery  ETV
vector 167  _01_RfidSim.reader[9].nic  TagReceivedQuery  ETV
vector 371  _01_RfidSim.tag[11].nic  TagReceivedQuery  ETV
vector 375  _01_RfidSim.tag[12].nic  TagReceivedQuery  ETV
vector 407  _01_RfidSim.tag[20].nic  TagReceivedQuery  ETV
vector 443  _01_RfidSim.tag[29].nic  TagReceivedQuery  ETV
vector 147  _01_RfidSim.reader[4].nic  TagReceivedQuery  ETV
vector 207  _01_RfidSim.reader[19].nic  TagReceivedQuery  ETV
vector 211  _01_RfidSim.reader[20].nic  TagReceivedQuery  ETV
vector 231  _01_RfidSim.reader[25].nic  TagReceivedQuery  ETV
vector 387  _01_RfidSim.tag[15].nic  TagReceivedQuery  ETV
vector 243  _01_RfidSim.reader[28].nic  TagReceivedQuery  ETV
vector 279  _01_RfidSim.reader[37].nic  TagReceivedQuery  ETV
vector 579  _01_RfidSim.tag[63].nic  TagReceivedQuery  ETV
vector 587  _01_RfidSim.tag[65].nic  TagReceivedQuery  ETV
vector 619  _01_RfidSim.tag[73].nic  TagReceivedQuery  ETV
vector 315  _01_RfidSim.reader[46].nic  TagReceivedQuery  ETV
vector 603  _01_RfidSim.tag[69].nic  TagReceivedQuery  ETV
vector 643  _01_RfidSim.tag[79].nic  TagReceivedQuery  ETV
vector 251  _01_RfidSim.reader[30].nic  TagReceivedQuery  ETV
vector 255  _01_RfidSim.reader[31].nic  TagReceivedQuery  ETV
vector 415  _01_RfidSim.tag[22].nic  TagReceivedQuery  ETV
vector 451  _01_RfidSim.tag[31].nic  TagReceivedQuery  ETV
vector 487  _01_RfidSim.tag[40].nic  TagReceivedQuery  ETV
vector 491  _01_RfidSim.tag[41].nic  TagReceivedQuery  ETV
vector 339  _01_RfidSim.tag[3].nic  TagReceivedQuery  ETV
vector 355  _01_RfidSim.tag[7].nic  TagReceivedQuery  ETV
vector 395  _01_RfidSim.tag[17].nic  TagReceivedQuery  ETV
vector 607  _01_RfidSim.tag[70].nic  TagReceivedQuery  ETV
vector 647  _01_RfidSim.tag[80].nic  TagReceivedQuery  ETV
vector 623  _01_RfidSim.tag[74].nic  TagReceivedQuery  ETV
vector 627  _01_RfidSim.tag[75].nic  TagReceivedQuery  ETV
vector 419  _01_RfidSim.tag[23].nic  TagReceivedQuery  ETV
vector 455  _01_RfidSim.tag[32].nic  TagReceivedQuery  ETV
vector 495  _01_RfidSim.tag[42].nic  TagReceivedQuery  ETV
vector 527  _01_RfidSim.tag[50].nic  TagReceivedQuery  ETV
vector 563  _01_RfidSim.tag[59].nic  TagReceivedQuery  ETV
vector 379  _01_RfidSim.tag[13].nic  TagReceivedQuery  ETV
vector 359  _01_RfidSim.tag[8].nic  TagReceivedQuery  ETV
vector 535  _01_RfidSim.tag[52].nic  TagReceivedQuery  ETV
vector 571  _01_RfidSim.tag[61].nic  TagReceivedQuery  ETV
vector 611  _01_RfidSim.tag[71].nic  TagReceivedQuery  ETV
vector 244  _01_RfidSim.reader[28].nic  ReaderSendAcknowledgement  ETV
vector 510  _01_RfidSim.tag[46].nic  TagReceivedAcknowledgement  ETV
vector 595  _01_RfidSim.tag[67].nic  TagReceivedQuery  ETV
vector 503  _01_RfidSim.tag[44].nic  TagReceivedQuery  ETV
vector 531  _01_RfidSim.tag[51].nic  TagReceivedQuery  ETV
vector 539  _01_RfidSim.tag[53].nic  TagReceivedQuery  ETV
vector 567  _01_RfidSim.tag[60].nic  TagReceivedQuery  ETV
vector 575  _01_RfidSim.tag[62].nic  TagReceivedQuery  ETV
vector 140  _01_RfidSim.reader[2].nic  ReaderSendAcknowledgement  ETV
vector 403  _01_RfidSim.tag[19].nic  TagReceivedQuery  ETV
vector 439  _01_RfidSim.tag[28].nic  TagReceivedQuery  ETV
vector 471  _01_RfidSim.tag[36].nic  TagReceivedQuery  ETV
vector 479  _01_RfidSim.tag[38].nic  TagReceivedQuery  ETV
vector 374  _01_RfidSim.tag[12].nic  TagReceivedAcknowledgement  ETV
vector 363  _01_RfidSim.tag[9].nic  TagReceivedQuery  ETV
vector 615  _01_RfidSim.tag[72].nic  TagReceivedQuery  ETV
vector 184  _01_RfidSim.reader[13].nic  ReaderSendAcknowledgement  ETV
vector 426  _01_RfidSim.tag[25].nic  TagReceivedAcknowledgement  ETV
vector 132  _01_RfidSim.reader[0].nic  ReaderSendAcknowledgement  ETV
vector 334  _01_RfidSim.tag[2].nic  TagReceivedAcknowledgement  ETV
vector 212  _01_RfidSim.reader[20].nic  ReaderSendAcknowledgement  ETV
vector 411  _01_RfidSim.tag[21].nic  TagReceivedQuery  ETV
vector 447  _01_RfidSim.tag[30].nic  TagReceivedQuery  ETV
vector 390  _01_RfidSim.tag[16].nic  TagReceivedAcknowledgement  ETV
vector 180  _01_RfidSim.reader[12].nic  ReaderSendAcknowledgement  ETV
vector 386  _01_RfidSim.tag[15].nic  TagReceivedAcknowledgement  ETV
vector 320  _01_RfidSim.reader[47].nic  ReaderSendAcknowledgement  ETV
vector 152  _01_RfidSim.reader[5].nic  ReaderSendAcknowledgement  ETV
vector 602  _01_RfidSim.tag[69].nic  TagReceivedAcknowledgement  ETV
vector 346  _01_RfidSim.tag[5].nic  TagReceivedAcknowledgement  ETV
vector 252  _01_RfidSim.reader[30].nic  ReaderSendAcknowledgement  ETV
vector 554  _01_RfidSim.tag[57].nic  TagReceivedAcknowledgement  ETV
vector 164  _01_RfidSim.reader[8].nic  ReaderSendAcknowledgement  ETV
vector 366  _01_RfidSim.tag[10].nic  TagReceivedAcknowledgement  ETV
vector 268  _01_RfidSim.reader[34].nic  ReaderSendAcknowledgement  ETV
vector 574  _01_RfidSim.tag[62].nic  TagReceivedAcknowledgement  ETV
vector 382  _01_RfidSim.tag[14].nic  TagReceivedAcknowledgement  ETV
vector 324  _01_RfidSim.reader[48].nic  ReaderSendAcknowledgement  ETV
vector 646  _01_RfidSim.tag[80].nic  TagReceivedAcknowledgement  ETV
vector 458  _01_RfidSim.tag[33].nic  TagReceivedAcknowledgement  ETV
vector 308  _01_RfidSim.reader[44].nic  ReaderSendAcknowledgement  ETV
vector 630  _01_RfidSim.tag[76].nic  TagReceivedAcknowledgement  ETV
vector 160  _01_RfidSim.reader[7].nic  ReaderSendAcknowledgement  ETV
vector 466  _01_RfidSim.tag[35].nic  TagReceivedAcknowledgement  ETV
vector 402  _01_RfidSim.tag[19].nic  TagReceivedAcknowledgement  ETV
vector 284  _01_RfidSim.reader[38].nic  ReaderSendAcknowledgement  ETV
vector 598  _01_RfidSim.tag[68].nic  TagReceivedAcknowledgement  ETV
vector 542  _01_RfidSim.tag[54].nic  TagReceivedAcknowledgement  ETV
vector 430  _01_RfidSim.tag[26].nic  TagReceivedAcknowledgement  ETV
vector 330  _01_RfidSim.tag[1].nic  TagReceivedAcknowledgement  ETV
vector 144  _01_RfidSim.reader[3].nic  ReaderSendAcknowledgement  ETV
vector 378  _01_RfidSim.tag[13].nic  TagReceivedAcknowledgement  ETV
vector 482  _01_RfidSim.tag[39].nic  TagReceivedAcknowledgement  ETV
vector 634  _01_RfidSim.tag[77].nic  TagReceivedAcknowledgement  ETV
vector 196  _01_RfidSim.reader[16].nic  ReaderSendAcknowledgement  ETV
vector 410  _01_RfidSim.tag[21].nic  TagReceivedAcknowledgement  ETV
vector 300  _01_RfidSim.reader[42].nic  ReaderSendAcknowledgement  ETV
vector 582  _01_RfidSim.tag[64].nic  TagReceivedAcknowledgement  ETV
vector 156  _01_RfidSim.reader[6].nic  ReaderSendAcknowledgement  ETV
vector 232  _01_RfidSim.reader[25].nic  ReaderSendAcknowledgement  ETV
vector 358  _01_RfidSim.tag[8].nic  TagReceivedAcknowledgement  ETV
vector 526  _01_RfidSim.tag[50].nic  TagReceivedAcknowledgement  ETV
vector 406  _01_RfidSim.tag[20].nic  TagReceivedAcknowledgement  ETV
vector 304  _01_RfidSim.reader[43].nic  ReaderSendAcknowledgement  ETV
vector 586  _01_RfidSim.tag[65].nic  TagReceivedAcknowledgement  ETV
vector 399  _01_RfidSim.tag[18].nic  TagReceivedQuery  ETV
vector 435  _01_RfidSim.tag[27].nic  TagReceivedQuery  ETV
vector 494  _01_RfidSim.tag[42].nic  TagReceivedAcknowledgement  ETV
vector 272  _01_RfidSim.reader[35].nic  ReaderSendAcknowledgement  ETV
vector 338  _01_RfidSim.tag[3].nic  TagReceivedAcknowledgement  ETV
vector 618  _01_RfidSim.tag[73].nic  TagReceivedAcknowledgement  ETV
vector 462  _01_RfidSim.tag[34].nic  TagReceivedAcknowledgement  ETV
vector 614  _01_RfidSim.tag[72].nic  TagReceivedAcknowledgement  ETV
vector 326  _01_RfidSim.tag[0].nic  TagReceivedAcknowledgement  ETV
vector 566  _01_RfidSim.tag[60].nic  TagReceivedAcknowledgement  ETV
vector 148  _01_RfidSim.reader[4].nic  ReaderSendAcknowledgement  ETV
vector 350  _01_RfidSim.tag[6].nic  TagReceivedAcknowledgement  ETV
vector 316  _01_RfidSim.reader[46].nic  ReaderSendAcknowledgement  ETV
vector 638  _01_RfidSim.tag[78].nic  TagReceivedAcknowledgement  ETV
vector 370  _01_RfidSim.tag[11].nic  TagReceivedAcknowledgement  ETV
vector 550  _01_RfidSim.tag[56].nic  TagReceivedAcknowledgement  ETV
vector 176  _01_RfidSim.reader[11].nic  ReaderSendAcknowledgement  ETV
vector 296  _01_RfidSim.reader[41].nic  ReaderSendAcknowledgement  ETV
vector 642  _01_RfidSim.tag[79].nic  TagReceivedAcknowledgement  ETV
vector 514  _01_RfidSim.tag[47].nic  TagReceivedAcknowledgement  ETV
vector 610  _01_RfidSim.tag[71].nic  TagReceivedAcknowledgement  ETV
vector 546  _01_RfidSim.tag[55].nic  TagReceivedAcknowledgement  ETV
vector 538  _01_RfidSim.tag[53].nic  TagReceivedAcknowledgement  ETV
vector 136  _01_RfidSim.reader[1].nic  ReaderSendAcknowledgement  ETV
vector 570  _01_RfidSim.tag[61].nic  TagReceivedAcknowledgement  ETV
vector 530  _01_RfidSim.tag[51].nic  TagReceivedAcknowledgement  ETV
vector 216  _01_RfidSim.reader[21].nic  ReaderSendAcknowledgement  ETV
vector 470  _01_RfidSim.tag[36].nic  TagReceivedAcknowledgement  ETV
vector 208  _01_RfidSim.reader[19].nic  ReaderSendAcknowledgement  ETV
vector 438  _01_RfidSim.tag[28].nic  TagReceivedAcknowledgement  ETV
vector 522  _01_RfidSim.tag[49].nic  TagReceivedAcknowledgement  ETV
vector 354  _01_RfidSim.tag[7].nic  TagReceivedAcknowledgement  ETV
vector 312  _01_RfidSim.reader[45].nic  ReaderSendAcknowledgement  ETV
vector 594  _01_RfidSim.tag[67].nic  TagReceivedAcknowledgement  ETV
vector 454  _01_RfidSim.tag[32].nic  TagReceivedAcknowledgement  ETV
vector 562  _01_RfidSim.tag[59].nic  TagReceivedAcknowledgement  ETV
vector 236  _01_RfidSim.reader[26].nic  ReaderSendAcknowledgement  ETV
vector 172  _01_RfidSim.reader[10].nic  ReaderSendAcknowledgement  ETV
vector 280  _01_RfidSim.reader[37].nic  ReaderSendAcknowledgement  ETV
vector 606  _01_RfidSim.tag[70].nic  TagReceivedAcknowledgement  ETV
vector 256  _01_RfidSim.reader[31].nic  ReaderSendAcknowledgement  ETV
vector 558  _01_RfidSim.tag[58].nic  TagReceivedAcknowledgement  ETV
vector 474  _01_RfidSim.tag[37].nic  TagReceivedAcknowledgement  ETV
vector 534  _01_RfidSim.tag[52].nic  TagReceivedAcknowledgement  ETV
vector 478  _01_RfidSim.tag[38].nic  TagReceivedAcknowledgement  ETV
vector 264  _01_RfidSim.reader[33].nic  ReaderSendAcknowledgement  ETV
vector 446  _01_RfidSim.tag[30].nic  TagReceivedAcknowledgement  ETV
vector 288  _01_RfidSim.reader[39].nic  ReaderSendAcknowledgement  ETV
vector 260  _01_RfidSim.reader[32].nic  ReaderSendAcknowledgement  ETV
vector 362  _01_RfidSim.tag[9].nic  TagReceivedAcknowledgement  ETV
vector 188  _01_RfidSim.reader[14].nic  ReaderSendAcknowledgement  ETV
vector 590  _01_RfidSim.tag[66].nic  TagReceivedAcknowledgement  ETV
vector 398  _01_RfidSim.tag[18].nic  TagReceivedAcknowledgement  ETV
vector 498  _01_RfidSim.tag[43].nic  TagReceivedAcknowledgement  ETV
vector 228  _01_RfidSim.reader[24].nic  ReaderSendAcknowledgement  ETV
vector 486  _01_RfidSim.tag[40].nic  TagReceivedAcknowledgement  ETV
vector 518  _01_RfidSim.tag[48].nic  TagReceivedAcknowledgement  ETV
vector 442  _01_RfidSim.tag[29].nic  TagReceivedAcknowledgement  ETV
vector 450  _01_RfidSim.tag[31].nic  TagReceivedAcknowledgement  ETV
vector 192  _01_RfidSim.reader[15].nic  ReaderSendAcknowledgement  ETV
vector 422  _01_RfidSim.tag[24].nic  TagReceivedAcknowledgement  ETV
vector 418  _01_RfidSim.tag[23].nic  TagReceivedAcknowledgement  ETV
vector 490  _01_RfidSim.tag[41].nic  TagReceivedAcknowledgement  ETV
vector 220  _01_RfidSim.reader[22].nic  ReaderSendAcknowledgement  ETV
vector 224  _01_RfidSim.reader[23].nic  ReaderSendAcknowledgement  ETV
vector 248  _01_RfidSim.reader[29].nic  ReaderSendAcknowledgement  ETV
131	1369	0.001414	141
131	2016	0.002004	141
131	5122	0.004622480729	141
131	28182	0.026580001	141
131	30722	0.028790001	141
132	6247	0.005828480729	141
132	22350	0.021693803649	141
132	34379	0.033046001	141
135	746	0.000844	148
135	1371	0.001414	148
135	2018	0.002004	148
135	2698	0.002534	148
135	5124	0.004622480729	148
135	30724	0.028790001	148
136	43199	0.043022002	148
136	44676	0.045062002	148
139	749	0.000844	155
139	1374	0.001414	155
139	2701	0.002534	155
139	7564	0.007192480729	155
139	8095	0.007822480729	155
139	28184	0.026580001	155
140	4150	0.003788480729	155
140	51512	0.052970453609	155
143	791	0.000844	162
143	2021	0.002004	162
143	6869	0.006582480729	162
143	7566	0.007192480729	162
143	8097	0.007822480729	162
143	10943	0.010434	162
143	28186	0.026580001	162
143	39394	0.038230001	162
144	23491	0.022606001	162
144	29546	0.027796001	162
147	1449	0.001414	169
147	2024	0.002004	169
147	2703	0.002534	169
147	3685	0.003464	169
147	10945	0.010434	169
147	39396	0.038230001	169
148	37014	0.035816001	169
151	794	0.000844	176
151	1451	0.001414	176
151	2272	0.002104	176
151	2855	0.002794	176
151	10947	0.010434	176
151	39467	0.038230001	176
151	40036	0.038780001	176
152	9952	0.00958	176
152	35452	0.034256001	176
155	797	0.000844	183
155	1454	0.001414	183
155	2274	0.002104	183
155	3689	0.003464	183
155	40038	0.038780001	183
156	26784	0.025406	183
159	752	0.000844	190
159	1378	0.001414	190
159	28188	0.026580001	190
159	30727	0.028790001	190
159	40812	0.039972452609	190
160	17864	0.017317803649	190
160	33125	0.031526001	190
160	64683	0.069130455609	190
163	754	0.000844	197
163	2027	0.002004	197
163	5128	0.004622480729	197
163	28190	0.026580001	197
163	30729	0.028790001	197
163	40814	0.039972452609	197
163	50165	0.051440450609	197
164	11476	0.010705802649	197
164	27132	0.025686001	197
164	37881	0.036546001	197
164	70839	0.078410455609	197
167	1381	0.001414	204
167	2707	0.002534	204
167	6873	0.006582480729	204
167	7570	0.007192480729	204
167	28192	0.026580001	204
167	39400	0.038230001	204
167	40816	0.039972452609	204
167	50167	0.051440450609	204
171	801	0.000844	211
171	1384	0.001414	211
171	1920	0.001894	211
171	6876	0.006582480729	211
171	7573	0.007192480729	211
171	50171	0.051440450609	211
172	55475	0.057190453609	211
175	804	0.000844	218
175	1458	0.001414	218
175	1922	0.001894	218
175	2606	0.002484	218
175	3692	0.003464	218
175	39402	0.038230001	218
175	49204	0.050240450609	218
176	38639	0.037356001	218
176	74418	0.089992451609	218
179	807	0.000844	225
179	2278	0.002104	225
179	2859	0.002794	225
179	3696	0.003464	225
179	10952	0.010434	225
179	49206	0.050240450609	225
180	8359	0.00806	225
180	12614	0.01167	225
180	25042	0.023886	225
183	853	0.000844	232
183	1461	0.001414	232
183	2861	0.002794	232
183	3698	0.003464	232
183	40043	0.038780001	232
183	49208	0.050240450609	232
184	5403	0.00492	232
184	48260	0.049106450609	232
187	758	0.000844	239
187	1387	0.001414	239
187	5132	0.004622480729	239
187	28195	0.026580001	239
187	30733	0.028790001	239
187	39142	0.037882452609	239
187	40818	0.039972452609	239
188	66546	0.071630455609	239
188	72838	0.084012451609	239
191	760	0.000844	246
191	1389	0.001414	246
191	2032	0.002004	246
191	5135	0.004622480729	246
191	7577	0.007192480729	246
191	8105	0.007822480729	246
191	28198	0.026580001	246
191	39144	0.037882452609	246
191	40820	0.039972452609	246
191	50176	0.051440450609	246
192	72292	0.081752451609	246
195	1074	0.000884	253
195	1392	0.001414	253
195	1925	0.001894	253
195	2713	0.002534	253
195	6882	0.006582480729	253
195	8108	0.007822480729	253
195	28201	0.026580001	253
195	30735	0.028790001	253
195	40822	0.039972452609	253
195	50180	0.051440450609	253
196	25305	0.024146001	253
196	61511	0.064550455609	253
199	811	0.000844	260
199	1927	0.001894	260
199	2610	0.002484	260
199	7579	0.007192480729	260
199	8110	0.007822480729	260
199	29670	0.028000450609	260
199	39409	0.038230001	260
199	50184	0.051440450609	260
203	813	0.000844	267
203	1465	0.001414	267
203	1929	0.001894	267
203	2612	0.002484	267
203	3700	0.003464	267
203	10958	0.010434	267
203	49211	0.050240450609	267
207	1468	0.001414	274
207	2281	0.002104	274
207	2863	0.002794	274
207	3704	0.003464	274
207	10961	0.010434	274
207	39476	0.038230001	274
207	49215	0.050240450609	274
208	46915	0.047586450609	274
208	50363	0.051456450609	274
208	58825	0.060996450609	274
208	65473	0.070516450609	274
211	1471	0.001414	281
211	2283	0.002104	281
211	2866	0.002794	281
211	39479	0.038230001	281
211	40047	0.038780001	281
211	49217	0.050240450609	281
212	6811	0.00644	281
212	14108	0.01335	281
212	17757	0.017306	281
212	21389	0.020766	281
212	23201	0.022346	281
212	30563	0.028526450609	281
212	66919	0.072036450609	281
212	73341	0.085732451609	281
215	998	0.000884	288
215	1396	0.001414	288
215	5139	0.004622480729	288
215	28723	0.027150001	288
215	30738	0.028790001	288
215	39148	0.037882452609	288
215	40825	0.039972452609	288
216	45343	0.045754453609	288
216	46709	0.047314453609	288
216	58701	0.060790455609	288
219	1001	0.000884	295
219	1398	0.001414	295
219	7583	0.007192480729	295
219	8113	0.007822480729	295
219	9332	0.009084450609	295
219	30740	0.028790001	295
219	39150	0.037882452609	295
219	50191	0.051440450609	295
220	75678	0.093252451609	295
220	77037	0.096432451609	295
220	78181	0.100412451609	295
223	1080	0.000884	302
223	1400	0.001414	302
223	1934	0.001894	302
223	2616	0.002484	302
223	6888	0.006582480729	302
223	7585	0.007192480729	302
223	8116	0.007822480729	302
223	9336	0.009084450609	302
223	29674	0.028000450609	302
223	39153	0.037882452609	302
223	40827	0.039972452609	302
224	76420	0.094772451609	302
227	1083	0.000884	309
227	2618	0.002484	309
227	3900	0.003724	309
227	6892	0.006582480729	309
227	7587	0.007192480729	309
227	8119	0.007822480729	309
227	29678	0.028000450609	309
227	39414	0.038230001	309
227	40830	0.039972452609	309
227	50195	0.051440450609	309
228	68771	0.075142457609	309
228	71610	0.080172451609	309
228	75024	0.091692451609	309
231	1473	0.001414	316
231	1936	0.001894	316
231	6896	0.006582480729	316
231	17353	0.016850450609	316
231	49221	0.050240450609	316
232	26902	0.025446450609	316
232	28605	0.027006450609	316
232	51636	0.052996450609	316
232	53057	0.054736450609	316
232	73912	0.088472451609	316
235	859	0.000844	323
235	1476	0.001414	323
235	1939	0.001894	323
235	2620	0.002484	323
235	3761	0.003664	323
236	54442	0.056256450609	323
236	59985	0.062716450609	323
236	69929	0.076932451609	323
239	862	0.000844	330
239	1478	0.001414	330
239	2286	0.002104	330
239	2899	0.002794	330
239	40052	0.038780001	330
239	49225	0.050240450609	330
243	1600	0.001434	337
243	4194	0.003824	337
243	4741	0.004314	337
243	5279	0.004844	337
243	24561	0.023460001	337
243	39156	0.037882452609	337
243	40832	0.039972452609	337
244	3031	0.00283	337
244	20923	0.020516450609	337
244	38331	0.036948452609	337
244	40306	0.039118452609	337
244	41837	0.041258452609	337
244	57390	0.059270455609	337
247	1005	0.000884	344
247	1602	0.001434	344
247	4196	0.003824	344
247	4743	0.004314	344
247	5281	0.004844	344
247	9342	0.009084450609	344
247	28729	0.027150001	344
247	30747	0.028790001	344
247	40834	0.039972452609	344
247	50202	0.051440450609	344