version 2
run Experiment20_9staticReaders_441TagsGrid-0-20150406-10:53:37-10260
attr configname Experiment20_9staticReaders_441TagsGrid
attr datetime 20150406-10:53:37
attr experiment Experiment20_9staticReaders_441TagsGrid
attr inifile omnetpp.ini
attr iterationvars ""
attr iterationvars2 $repetition=0
attr measurement ""
attr network _01_RfidSim
attr processid 10260
attr repetition 0
attr replication #0
attr resultdir results
attr runnumber 0
attr seedset 0

vector 2250  _01_RfidSim.reader[0].nic.phy  RadioState  ETV
vector 2251  _01_RfidSim.reader[0].nic.phy  RadioChannel  ETV
vector 2252  _01_RfidSim.reader[1].nic.phy  RadioState  ETV
vector 2253  _01_RfidSim.reader[1].nic.phy  RadioChannel  ETV
vector 2254  _01_RfidSim.reader[2].nic.phy  RadioState  ETV
vector 2255  _01_RfidSim.reader[2].nic.phy  RadioChannel  ETV
vector 2256  _01_RfidSim.reader[3].nic.phy  RadioState  ETV
vector 2257  _01_RfidSim.reader[3].nic.phy  RadioChannel  ETV
vector 2258  _01_RfidSim.reader[4].nic.phy  RadioState  ETV
vector 2259  _01_RfidSim.reader[4].nic.phy  RadioChannel  ETV
vector 2260  _01_RfidSim.reader[5].nic.phy  RadioState  ETV
vector 2261  _01_RfidSim.reader[5].nic.phy  RadioChannel  ETV
vector 2262  _01_RfidSim.reader[6].nic.phy  RadioState  ETV
vector 2263  _01_RfidSim.reader[6].nic.phy  RadioChannel  ETV
vector 2264  _01_RfidSim.reader[7].nic.phy  RadioState  ETV
vector 2265  _01_RfidSim.reader[7].nic.phy  RadioChannel  ETV
vector 2266  _01_RfidSim.reader[8].nic.phy  RadioState  ETV
vector 2267  _01_RfidSim.reader[8].nic.phy  RadioChannel  ETV
vector 547  _01_RfidSim.tag[15].nic  TagReceivedQuery  ETV
vector 551  _01_RfidSim.tag[16].nic  TagReceivedQuery  ETV
vector 555  _01_RfidSim.tag[17].nic  TagReceivedQuery  ETV
vector 559  _01_RfidSim.tag[18].nic  TagReceivedQuery  ETV
vector 563  _01_RfidSim.tag[19].nic  TagReceivedQuery  ETV
vector 631  _01_RfidSim.tag[36].nic  TagReceivedQuery  ETV
vector 635  _01_RfidSim.tag[37].nic  TagReceivedQuery  ETV
vector 639  _01_RfidSim.tag[38].nic  TagReceivedQuery  ETV
vector 643  _01_RfidSim.tag[39].nic  TagReceivedQuery  ETV
vector 647  _01_RfidSim.tag[40].nic  TagReceivedQuery  ETV
vector 715  _01_RfidSim.tag[57].nic  TagReceivedQuery  ETV
vector 719  _01_RfidSim.tag[58].nic  TagReceivedQuery  ETV
vector 723  _01_RfidSim.tag[59].nic  TagReceivedQuery  ETV
vector 727  _01_RfidSim.tag[60].nic  TagReceivedQuery  ETV
vector 731  _01_RfidSim.tag[61].nic  TagReceivedQuery  ETV
vector 803  _01_RfidSim.tag[79].nic  TagReceivedQuery  ETV
vector 807  _01_RfidSim.tag[80].nic  TagReceivedQuery  ETV
vector 811  _01_RfidSim.tag[81].nic  TagReceivedQuery  ETV
vector 887  _01_RfidSim.tag[100].nic  TagReceivedQuery  ETV
vector 891  _01_RfidSim.tag[101].nic  TagReceivedQuery  ETV
vector 895  _01_RfidSim.tag[102].nic  TagReceivedQuery  ETV
vector 1867  _01_RfidSim.tag[345].nic  TagReceivedQuery  ETV
vector 1871  _01_RfidSim.tag[346].nic  TagReceivedQuery  ETV
vector 1875  _01_RfidSim.tag[347].nic  TagReceivedQuery  ETV
vector 1951  _01_RfidSim.tag[366].nic  TagReceivedQuery  ETV
vector 1955  _01_RfidSim.tag[367].nic  TagReceivedQuery  ETV
vector 1959  _01_RfidSim.tag[368].nic  TagReceivedQuery  ETV
vector 2031  _01_RfidSim.tag[386].nic  TagReceivedQuery  ETV
vector 2035  _01_RfidSim.tag[387].nic  TagReceivedQuery  ETV
vector 2039  _01_RfidSim.tag[388].nic  TagReceivedQuery  ETV
vector 2043  _01_RfidSim.tag[389].nic  TagReceivedQuery  ETV
vector 2047  _01_RfidSim.tag[390].nic  TagReceivedQuery  ETV
vector 2115  _01_RfidSim.tag[407].nic  TagReceivedQuery  ETV
vector 2119  _01_RfidSim.tag[408].nic  TagReceivedQuery  ETV
vector 2123  _01_RfidSim.tag[409].nic  TagReceivedQuery  ETV
vector 2127  _01_RfidSim.tag[410].nic  TagReceivedQuery  ETV
vector 2131  _01_RfidSim.tag[411].nic  TagReceivedQuery  ETV
vector 2199  _01_RfidSim.tag[428].nic  TagReceivedQuery  ETV
vector 2203  _01_RfidSim.tag[429].nic  TagReceivedQuery  ETV
vector 2207  _01_RfidSim.tag[430].nic  TagReceivedQuery  ETV
vector 2211  _01_RfidSim.tag[431].nic  TagReceivedQuery  ETV
vector 2215  _01_RfidSim.tag[432].nic  TagReceivedQuery  ETV
vector 1895  _01_RfidSim.tag[352].nic  TagReceivedQuery  ETV
vector 1899  _01_RfidSim.tag[353].nic  TagReceivedQuery  ETV
vector 1903  _01_RfidSim.tag[354].nic  TagReceivedQuery  ETV
vector 1979  _01_RfidSim.tag[373].nic  TagReceivedQuery  ETV
vector 1983  _01_RfidSim.tag[374].nic  TagReceivedQuery  ETV
vector 1987  _01_RfidSim.tag[375].nic  TagReceivedQuery  ETV
vector 2059  _01_RfidSim.tag[393].nic  TagReceivedQuery  ETV
vector 2063  _01_RfidSim.tag[394].nic  TagReceivedQuery  ETV
vector 2067  _01_RfidSim.tag[395].nic  TagReceivedQuery  ETV
vector 2071  _01_RfidSim.tag[396].nic  TagReceivedQuery  ETV
vector 2075  _01_RfidSim.tag[397].nic  TagReceivedQuery  ETV
vector 2143  _01_RfidSim.tag[414].nic  TagReceivedQuery  ETV
vector 2147  _01_RfidSim.tag[415].nic  TagReceivedQuery  ETV
vector 2151  _01_RfidSim.tag[416].nic  TagReceivedQuery  ETV
vector 2155  _01_RfidSim.tag[417].nic  TagReceivedQuery  ETV
vector 2159  _01_RfidSim.tag[418].nic  TagReceivedQuery  ETV
vector 2227  _01_RfidSim.tag[435].nic  TagReceivedQuery  ETV
vector 2231  _01_RfidSim.tag[436].nic  TagReceivedQuery  ETV
vector 2235  _01_RfidSim.tag[437].nic  TagReceivedQuery  ETV
vector 2239  _01_RfidSim.tag[438].nic  TagReceivedQuery  ETV
vector 2243  _01_RfidSim.tag[439].nic  TagReceivedQuery  ETV
vector 999  _01_RfidSim.tag[128].nic  TagReceivedQuery  ETV
vector 1003  _01_RfidSim.tag[129].nic  TagReceivedQuery  ETV
vector 1007  _01_RfidSim.tag[130].nic  TagReceivedQuery  ETV
vector 1083  _01_RfidSim.tag[149].nic  TagReceivedQuery  ETV
vector 1087  _01_RfidSim.tag[150].nic  TagReceivedQuery  ETV
vector 1091  _01_RfidSim.tag[151].nic  TagReceivedQuery  ETV
vector 1163  _01_RfidSim.tag[169].nic  TagReceivedQuery  ETV
vector 1167  _01_RfidSim.tag[170].nic  TagReceivedQuery  ETV
vector 1171  _01_RfidSim.tag[171].nic  TagReceivedQuery  ETV
vector 1175  _01_RfidSim.tag[172].nic  TagReceivedQuery  ETV
vector 1179  _01_RfidSim.tag[173].nic  TagReceivedQuery  ETV
vector 1247  _01_RfidSim.tag[190].nic  TagReceivedQuery  ETV
vector 1251  _01_RfidSim.tag[191].nic  TagReceivedQuery  ETV
vector 1255  _01_RfidSim.tag[192].nic  TagReceivedQuery  ETV
vector 1259  _01_RfidSim.tag[193].nic  TagReceivedQuery  ETV
vector 1263  _01_RfidSim.tag[194].nic  TagReceivedQuery  ETV
vector 1331  _01_RfidSim.tag[211].nic  TagReceivedQuery  ETV
vector 1335  _01_RfidSim.tag[212].nic  TagReceivedQuery  ETV
vector 1339  _01_RfidSim.tag[213].nic  TagReceivedQuery  ETV
vector 1343  _01_RfidSim.tag[214].nic  TagReceivedQuery  ETV
vector 1347  _01_RfidSim.tag[215].nic  TagReceivedQuery  ETV
vector 1415  _01_RfidSim.tag[232].nic  TagReceivedQuery  ETV
vector 1419  _01_RfidSim.tag[233].nic  TagReceivedQuery  ETV
vector 1423  _01_RfidSim.tag[234].nic  TagReceivedQuery  ETV
vector 1427  _01_RfidSim.tag[235].nic  TagReceivedQuery  ETV
vector 1431  _01_RfidSim.tag[236].nic  TagReceivedQuery  ETV
vector 1499  _01_RfidSim.tag[253].nic  TagReceivedQuery  ETV
vector 1503  _01_RfidSim.tag[254].nic  TagReceivedQuery  ETV
vector 1507  _01_RfidSim.tag[255].nic  TagReceivedQuery  ETV
vector 1511  _01_RfidSim.tag[256].nic  TagReceivedQuery  ETV
vector 1515  _01_RfidSim.tag[257].nic  TagReceivedQuery  ETV
vector 1587  _01_RfidSim.tag[275].nic  TagReceivedQuery  ETV
vector 1591  _01_RfidSim.tag[276].nic  TagReceivedQuery  ETV
vector 1595  _01_RfidSim.tag[277].nic  TagReceivedQuery  ETV
vector 1671  _01_RfidSim.tag[296].nic  TagReceivedQuery  ETV
vector 1675  _01_RfidSim.tag[297].nic  TagReceivedQuery  ETV
vector 1679  _01_RfidSim.tag[298].nic  TagReceivedQuery  ETV
vector 519  _01_RfidSim.tag[8].nic  TagReceivedQuery  ETV
vector 523  _01_RfidSim.tag[9].nic  TagReceivedQuery  ETV
vector 527  _01_RfidSim.tag[10].nic  TagReceivedQuery  ETV
vector 531  _01_RfidSim.tag[11].nic  TagReceivedQuery  ETV
vector 535  _01_RfidSim.tag[12].nic  TagReceivedQuery  ETV
vector 603  _01_RfidSim.tag[29].nic  TagReceivedQuery  ETV
vector 607  _01_RfidSim.tag[30].nic  TagReceivedQuery  ETV
vector 611  _01_RfidSim.tag[31].nic  TagReceivedQuery  ETV
vector 615  _01_RfidSim.tag[32].nic  TagReceivedQuery  ETV
vector 619  _01_RfidSim.tag[33].nic  TagReceivedQuery  ETV
vector 687  _01_RfidSim.tag[50].nic  TagReceivedQuery  ETV
vector 691  _01_RfidSim.tag[51].nic  TagReceivedQuery  ETV
vector 695  _01_RfidSim.tag[52].nic  TagReceivedQuery  ETV
vector 699  _01_RfidSim.tag[53].nic  TagReceivedQuery  ETV
vector 703  _01_RfidSim.tag[54].nic  TagReceivedQuery  ETV
vector 775  _01_RfidSim.tag[72].nic  TagReceivedQuery  ETV
vector 779  _01_RfidSim.tag[73].nic  TagReceivedQuery  ETV
vector 783  _01_RfidSim.tag[74].nic  TagReceivedQuery  ETV
vector 859  _01_RfidSim.tag[93].nic  TagReceivedQuery  ETV
vector 863  _01_RfidSim.tag[94].nic  TagReceivedQuery  ETV
vector 867  _01_RfidSim.tag[95].nic  TagReceivedQuery  ETV
vector 464  _01_RfidSim.reader[3].nic  ReaderSendAcknowledgement  ETV
vector 456  _01_RfidSim.reader[1].nic  ReaderSendAcknowledgement  ETV
vector 1590  _01_RfidSim.tag[276].nic  TagReceivedAcknowledgement  ETV
vector 858  _01_RfidSim.tag[93].nic  TagReceivedAcknowledgement  ETV
vector 1839  _01_RfidSim.tag[338].nic  TagReceivedQuery  ETV
vector 1843  _01_RfidSim.tag[339].nic  TagReceivedQuery  ETV
vector 1847  _01_RfidSim.tag[340].nic  TagReceivedQuery  ETV
vector 1923  _01_RfidSim.tag[359].nic  TagReceivedQuery  ETV
vector 1927  _01_RfidSim.tag[360].nic  TagReceivedQuery  ETV
vector 1931  _01_RfidSim.tag[361].nic  TagReceivedQuery  ETV
vector 2003  _01_RfidSim.tag[379].nic  TagReceivedQuery  ETV
vector 2007  _01_RfidSim.tag[380].nic  TagReceivedQuery  ETV
vector 2011  _01_RfidSim.tag[381].nic  TagReceivedQuery  ETV
vector 2015  _01_RfidSim.tag[382].nic  TagReceivedQuery  ETV
vector 2019  _01_RfidSim.tag[383].nic  TagReceivedQuery  ETV
vector 2087  _01_RfidSim.tag[400].nic  TagReceivedQuery  ETV
vector 2091  _01_RfidSim.tag[401].nic  TagReceivedQuery  ETV
vector 2095  _01_RfidSim.tag[402].nic  TagReceivedQuery  ETV
vector 2099  _01_RfidSim.tag[403].nic  TagReceivedQuery  ETV
vector 2103  _01_RfidSim.tag[404].nic  TagReceivedQuery  ETV
vector 2171  _01_RfidSim.tag[421].nic  TagReceivedQuery  ETV
vector 2175  _01_RfidSim.tag[422].nic  TagReceivedQuery  ETV
vector 2179  _01_RfidSim.tag[423].nic  TagReceivedQuery  ETV
vector 2183  _01_RfidSim.tag[424].nic  TagReceivedQuery  ETV
vector 2187  _01_RfidSim.tag[425].nic  TagReceivedQuery  ETV
vector 484  _01_RfidSim.reader[8].nic  ReaderSendAcknowledgement  ETV
vector 460  _01_RfidSim.reader[2].nic  ReaderSendAcknowledgement  ETV
vector 1027  _01_RfidSim.tag[135].nic  TagReceivedQuery  ETV
vector 1031  _01_RfidSim.tag[136].nic  TagReceivedQuery  ETV
vector 1035  _01_RfidSim.tag[137].nic  TagReceivedQuery  ETV
vector 1111  _01_RfidSim.tag[156].nic  TagReceivedQuery  ETV
vector 1115  _01_RfidSim.tag[157].nic  TagReceivedQuery  ETV
vector 1119  _01_RfidSim.tag[158].nic  TagReceivedQuery  ETV
vector 1191  _01_RfidSim.tag[176].nic  TagReceivedQuery  ETV
vector 1195  _01_RfidSim.tag[177].nic  TagReceivedQuery  ETV
vector 1199  _01_RfidSim.tag[178].nic  TagReceivedQuery  ETV
vector 1203  _01_RfidSim.tag[179].nic  TagReceivedQuery  ETV
vector 1207  _01_RfidSim.tag[180].nic  TagReceivedQuery  ETV
vector 1275  _01_RfidSim.tag[197].nic  TagReceivedQuery  ETV
vector 1279  _01_RfidSim.tag[198].nic  TagReceivedQuery  ETV
vector 1283  _01_RfidSim.tag[199].nic  TagReceivedQuery  ETV
vector 1287  _01_RfidSim.tag[200].nic  TagReceivedQuery  ETV
vector 1291  _01_RfidSim.tag[201].nic  TagReceivedQuery  ETV
vector 1359  _01_RfidSim.tag[218].nic  TagReceivedQuery  ETV
vector 1363  _01_RfidSim.tag[219].nic  TagReceivedQuery  ETV
vector 1367  _01_RfidSim.tag[220].nic  TagReceivedQuery  ETV
vector 1371  _01_RfidSim.tag[221].nic  TagReceivedQuery  ETV
vector 1375  _01_RfidSim.tag[222].nic  TagReceivedQuery  ETV
vector 1443  _01_RfidSim.tag[239].nic  TagReceivedQuery  ETV
vector 1447  _01_RfidSim.tag[240].nic  TagReceivedQuery  ETV
vector 1451  _01_RfidSim.tag[241].nic  TagReceivedQuery  ETV
vector 1455  _01_RfidSim.tag[242].nic  TagReceivedQuery  ETV
vector 1459  _01_RfidSim.tag[243].nic  TagReceivedQuery  ETV
vector 1527  _01_RfidSim.tag[260].nic  TagReceivedQuery  ETV
vector 1531  _01_RfidSim.tag[261].nic  TagReceivedQuery  ETV
vector 1535  _01_RfidSim.tag[262].nic  TagReceivedQuery  ETV
vector 1539  _01_RfidSim.tag[263].nic  TagReceivedQuery  ETV
vector 1543  _01_RfidSim.tag[264].nic  TagReceivedQuery  ETV
vector 1615  _01_RfidSim.tag[282].nic  TagReceivedQuery  ETV
vector 1619  _01_RfidSim.tag[283].nic  TagReceivedQuery  ETV
vector 1623  _01_RfidSim.tag[284].nic  TagReceivedQuery  ETV
vector 1699  _01_RfidSim.tag[303].nic  TagReceivedQuery  ETV
vector 1703  _01_RfidSim.tag[304].nic  TagReceivedQuery  ETV
vector 1707  _01_RfidSim.tag[305].nic  TagReceivedQuery  ETV
vector 2150  _01_RfidSim.tag[416].nic  TagReceivedAcknowledgement  ETV
vector 810  _01_RfidSim.tag[81].nic  TagReceivedAcknowledgement  ETV
vector 468  _01_RfidSim.reader[4].nic  ReaderSendAcknowledgement  ETV
vector 476  _01_RfidSim.reader[6].nic  ReaderSendAcknowledgement  ETV
vector 1278  _01_RfidSim.tag[198].nic  TagReceivedAcknowledgement  ETV
vector 2182  _01_RfidSim.tag[424].nic  TagReceivedAcknowledgement  ETV
vector 546  _01_RfidSim.tag[15].nic  TagReceivedAcknowledgement  ETV
vector 2154  _01_RfidSim.tag[417].nic  TagReceivedAcknowledgement  ETV
vector 894  _01_RfidSim.tag[102].nic  TagReceivedAcknowledgement  ETV
vector 2058  _01_RfidSim.tag[393].nic  TagReceivedAcknowledgement  ETV
vector 522  _01_RfidSim.tag[9].nic  TagReceivedAcknowledgement  ETV
vector 1498  _01_RfidSim.tag[253].nic  TagReceivedAcknowledgement  ETV
vector 642  _01_RfidSim.tag[39].nic  TagReceivedAcknowledgement  ETV
vector 1978  _01_RfidSim.tag[373].nic  TagReceivedAcknowledgement  ETV
vector 526  _01_RfidSim.tag[10].nic  TagReceivedAcknowledgement  ETV
vector 890  _01_RfidSim.tag[101].nic  TagReceivedAcknowledgement  ETV
vector 2070  _01_RfidSim.tag[396].nic  TagReceivedAcknowledgement  ETV
vector 1842  _01_RfidSim.tag[339].nic  TagReceivedAcknowledgement  ETV
vector 530  _01_RfidSim.tag[11].nic  TagReceivedAcknowledgement  ETV
vector 646  _01_RfidSim.tag[40].nic  TagReceivedAcknowledgement  ETV
vector 2074  _01_RfidSim.tag[397].nic  TagReceivedAcknowledgement  ETV
vector 518  _01_RfidSim.tag[8].nic  TagReceivedAcknowledgement  ETV
vector 2086  _01_RfidSim.tag[400].nic  TagReceivedAcknowledgement  ETV
vector 491  _01_RfidSim.tag[1].nic  TagReceivedQuery  ETV
vector 495  _01_RfidSim.tag[2].nic  TagReceivedQuery  ETV
vector 499  _01_RfidSim.tag[3].nic  TagReceivedQuery  ETV
vector 503  _01_RfidSim.tag[4].nic  TagReceivedQuery  ETV
vector 507  _01_RfidSim.tag[5].nic  TagReceivedQuery  ETV
vector 575  _01_RfidSim.tag[22].nic  TagReceivedQuery  ETV
vector 579  _01_RfidSim.tag[23].nic  TagReceivedQuery  ETV
vector 583  _01_RfidSim.tag[24].nic  TagReceivedQuery  ETV
vector 587  _01_RfidSim.tag[25].nic  TagReceivedQuery  ETV
vector 591  _01_RfidSim.tag[26].nic  TagReceivedQuery  ETV
vector 659  _01_RfidSim.tag[43].nic  TagReceivedQuery  ETV
vector 663  _01_RfidSim.tag[44].nic  TagReceivedQuery  ETV
vector 667  _01_RfidSim.tag[45].nic  TagReceivedQuery  ETV
vector 671  _01_RfidSim.tag[46].nic  TagReceivedQuery  ETV
vector 675  _01_RfidSim.tag[47].nic  TagReceivedQuery  ETV
vector 747  _01_RfidSim.tag[65].nic  TagReceivedQuery  ETV
vector 751  _01_RfidSim.tag[66].nic  TagReceivedQuery  ETV
vector 755  _01_RfidSim.tag[67].nic  TagReceivedQuery  ETV
vector 831  _01_RfidSim.tag[86].nic  TagReceivedQuery  ETV
vector 835  _01_RfidSim.tag[87].nic  TagReceivedQuery  ETV
vector 839  _01_RfidSim.tag[88].nic  TagReceivedQuery  ETV
vector 550  _01_RfidSim.tag[16].nic  TagReceivedAcknowledgement  ETV
vector 480  _01_RfidSim.reader[7].nic  ReaderSendAcknowledgement  ETV
vector 2242  _01_RfidSim.tag[439].nic  TagReceivedAcknowledgement  ETV
vector 2118  _01_RfidSim.tag[408].nic  TagReceivedAcknowledgement  ETV
vector 862  _01_RfidSim.tag[94].nic  TagReceivedAcknowledgement  ETV
vector 2002  _01_RfidSim.tag[379].nic  TagReceivedAcknowledgement  ETV
vector 802  _01_RfidSim.tag[79].nic  TagReceivedAcknowledgement  ETV
vector 452  _01_RfidSim.reader[0].nic  ReaderSendAcknowledgement  ETV
vector 754  _01_RfidSim.tag[67].nic  TagReceivedAcknowledgement  ETV
vector 2094  _01_RfidSim.tag[402].nic  TagReceivedAcknowledgement  ETV
vector 610  _01_RfidSim.tag[31].nic  TagReceivedAcknowledgement  ETV
vector 2230  _01_RfidSim.tag[436].nic  TagReceivedAcknowledgement  ETV
vector 1178  _01_RfidSim.tag[173].nic  TagReceivedAcknowledgement  ETV
vector 2186  _01_RfidSim.tag[425].nic  TagReceivedAcknowledgement  ETV
vector 698  _01_RfidSim.tag[53].nic  TagReceivedAcknowledgement  ETV
vector 2066  _01_RfidSim.tag[395].nic  TagReceivedAcknowledgement  ETV
vector 1170  _01_RfidSim.tag[171].nic  TagReceivedAcknowledgement  ETV
vector 534  _01_RfidSim.tag[12].nic  TagReceivedAcknowledgement  ETV
vector 2158  _01_RfidSim.tag[418].nic  TagReceivedAcknowledgement  ETV
vector 1902  _01_RfidSim.tag[354].nic  TagReceivedAcknowledgement  ETV
vector 2006  _01_RfidSim.tag[380].nic  TagReceivedAcknowledgement  ETV
vector 726  _01_RfidSim.tag[60].nic  TagReceivedAcknowledgement  ETV
vector 606  _01_RfidSim.tag[30].nic  TagReceivedAcknowledgement  ETV
vector 2062  _01_RfidSim.tag[394].nic  TagReceivedAcknowledgement  ETV
vector 554  _01_RfidSim.tag[17].nic  TagReceivedAcknowledgement  ETV
vector 778  _01_RfidSim.tag[73].nic  TagReceivedAcknowledgement  ETV
vector 1894  _01_RfidSim.tag[352].nic  TagReceivedAcknowledgement  ETV
vector 502  _01_RfidSim.tag[4].nic  TagReceivedAcknowledgement  ETV
vector 806  _01_RfidSim.tag[80].nic  TagReceivedAcknowledgement  ETV
vector 1898  _01_RfidSim.tag[353].nic  TagReceivedAcknowledgement  ETV
vector 498  _01_RfidSim.tag[3].nic  TagReceivedAcknowledgement  ETV
vector 634  _01_RfidSim.tag[37].nic  TagReceivedAcknowledgement  ETV
vector 1374  _01_RfidSim.tag[222].nic  TagReceivedAcknowledgement  ETV
vector 2146  _01_RfidSim.tag[415].nic  TagReceivedAcknowledgement  ETV
vector 830  _01_RfidSim.tag[86].nic  TagReceivedAcknowledgement  ETV
vector 730  _01_RfidSim.tag[61].nic  TagReceivedAcknowledgement  ETV
vector 1530  _01_RfidSim.tag[261].nic  TagReceivedAcknowledgement  ETV
vector 2098  _01_RfidSim.tag[403].nic  TagReceivedAcknowledgement  ETV
vector 1982  _01_RfidSim.tag[374].nic  TagReceivedAcknowledgement  ETV
vector 886  _01_RfidSim.tag[100].nic  TagReceivedAcknowledgement  ETV
vector 2178  _01_RfidSim.tag[423].nic  TagReceivedAcknowledgement  ETV
vector 2238  _01_RfidSim.tag[438].nic  TagReceivedAcknowledgement  ETV
vector 1706  _01_RfidSim.tag[305].nic  TagReceivedAcknowledgement  ETV
vector 722  _01_RfidSim.tag[59].nic  TagReceivedAcknowledgement  ETV
vector 586  _01_RfidSim.tag[25].nic  TagReceivedAcknowledgement  ETV
vector 1846  _01_RfidSim.tag[340].nic  TagReceivedAcknowledgement  ETV
vector 2234  _01_RfidSim.tag[437].nic  TagReceivedAcknowledgement  ETV
vector 638  _01_RfidSim.tag[38].nic  TagReceivedAcknowledgement  ETV
vector 674  _01_RfidSim.tag[47].nic  TagReceivedAcknowledgement  ETV
vector 1055  _01_RfidSim.tag[142].nic  TagReceivedQuery  ETV
vector 1059  _01_RfidSim.tag[143].nic  TagReceivedQuery  ETV
vector 1063  _01_RfidSim.tag[144].nic  TagReceivedQuery  ETV
vector 1139  _01_RfidSim.tag[163].nic  TagReceivedQuery  ETV
vector 1143  _01_RfidSim.tag[164].nic  TagReceivedQuery  ETV
vector 1147  _01_RfidSim.tag[165].nic  TagReceivedQuery  ETV
vector 1219  _01_RfidSim.tag[183].nic  TagReceivedQuery  ETV
vector 1223  _01_RfidSim.tag[184].nic  TagReceivedQuery  ETV
vector 1227  _01_RfidSim.tag[185].nic  TagReceivedQuery  ETV
vector 1231  _01_RfidSim.tag[186].nic  TagReceivedQuery  ETV
vector 1235  _01_RfidSim.tag[187].nic  TagReceivedQuery  ETV
vector 1303  _01_RfidSim.tag[204].nic  TagReceivedQuery  ETV
vector 1307  _01_RfidSim.tag[205].nic  TagReceivedQuery  ETV
vector 1311  _01_RfidSim.tag[206].nic  TagReceivedQuery  ETV
vector 1315  _01_RfidSim.tag[207].nic  TagReceivedQuery  ETV
vector 1319  _01_RfidSim.tag[208].nic  TagReceivedQuery  ETV
vector 1387  _01_RfidSim.tag[225].nic  TagReceivedQuery  ETV
vector 1391  _01_RfidSim.tag[226].nic  TagReceivedQuery  ETV
vector 1395  _01_RfidSim.tag[227].nic  TagReceivedQuery  ETV
vector 1399  _01_RfidSim.tag[228].nic  TagReceivedQuery  ETV
vector 1403  _01_RfidSim.tag[229].nic  TagReceivedQuery  ETV
vector 1471  _01_RfidSim.tag[246].nic  TagReceivedQuery  ETV
vector 1475  _01_RfidSim.tag[247].nic  TagReceivedQuery  ETV
vector 1479  _01_RfidSim.tag[248].nic  TagReceivedQuery  ETV
vector 1483  _01_RfidSim.tag[249].nic  TagReceivedQuery  ETV
vector 1487  _01_RfidSim.tag[250].nic  TagReceivedQuery  ETV
vector 1555  _01_RfidSim.tag[267].nic  TagReceivedQuery  ETV
vector 1559  _01_RfidSim.tag[268].nic  TagReceivedQuery  ETV
vector 1563  _01_RfidSim.tag[269].nic  TagReceivedQuery  ETV
vector 1567  _01_RfidSim.tag[270].nic  TagReceivedQuery  ETV
vector 1571  _01_RfidSim.tag[271].nic  TagReceivedQuery  ETV
vector 1643  _01_RfidSim.tag[289].nic  TagReceivedQuery  ETV
vector 1647  _01_RfidSim.tag[290].nic  TagReceivedQuery  ETV
vector 1651  _01_RfidSim.tag[291].nic  TagReceivedQuery  ETV
vector 1727  _01_RfidSim.tag[310].nic  TagReceivedQuery  ETV
vector 1731  _01_RfidSim.tag[311].nic  TagReceivedQuery  ETV
vector 1735  _01_RfidSim.tag[312].nic  TagReceivedQuery  ETV
vector 574  _01_RfidSim.tag[22].nic  TagReceivedAcknowledgement  ETV
vector 1922  _01_RfidSim.tag[359].nic  TagReceivedAcknowledgement  ETV
vector 562  _01_RfidSim.tag[19].nic  TagReceivedAcknowledgement  ETV
vector 472  _01_RfidSim.reader[5].nic  ReaderSendAcknowledgement  ETV
vector 1474  _01_RfidSim.tag[247].nic  TagReceivedAcknowledgement  ETV
vector 998  _01_RfidSim.tag[128].nic  TagReceivedAcknowledgement  ETV
vector 614  _01_RfidSim.tag[32].nic  TagReceivedAcknowledgement  ETV
vector 1138  _01_RfidSim.tag[163].nic  TagReceivedAcknowledgement  ETV
vector 2030  _01_RfidSim.tag[386].nic  TagReceivedAcknowledgement  ETV
vector 1314  _01_RfidSim.tag[207].nic  TagReceivedAcknowledgement  ETV
vector 782  _01_RfidSim.tag[74].nic  TagReceivedAcknowledgement  ETV
vector 1566  _01_RfidSim.tag[270].nic  TagReceivedAcknowledgement  ETV
vector 2046  _01_RfidSim.tag[390].nic  TagReceivedAcknowledgement  ETV
vector 2170  _01_RfidSim.tag[421].nic  TagReceivedAcknowledgement  ETV
vector 2042  _01_RfidSim.tag[389].nic  TagReceivedAcknowledgement  ETV
vector 1558  _01_RfidSim.tag[268].nic  TagReceivedAcknowledgement  ETV
vector 2102  _01_RfidSim.tag[404].nic  TagReceivedAcknowledgement  ETV
vector 1394  _01_RfidSim.tag[227].nic  TagReceivedAcknowledgement  ETV
vector 618  _01_RfidSim.tag[33].nic  TagReceivedAcknowledgement  ETV
vector 2202  _01_RfidSim.tag[429].nic  TagReceivedAcknowledgement  ETV
vector 2010  _01_RfidSim.tag[381].nic  TagReceivedAcknowledgement  ETV
vector 1402  _01_RfidSim.tag[229].nic  TagReceivedAcknowledgement  ETV
vector 670  _01_RfidSim.tag[46].nic  TagReceivedAcknowledgement  ETV
vector 2126  _01_RfidSim.tag[410].nic  TagReceivedAcknowledgement  ETV
vector 694  _01_RfidSim.tag[52].nic  TagReceivedAcknowledgement  ETV
vector 2198  _01_RfidSim.tag[428].nic  TagReceivedAcknowledgement  ETV
vector 774  _01_RfidSim.tag[72].nic  TagReceivedAcknowledgement  ETV
vector 490  _01_RfidSim.tag[1].nic  TagReceivedAcknowledgement  ETV
vector 1062  _01_RfidSim.tag[144].nic  TagReceivedAcknowledgement  ETV
vector 494  _01_RfidSim.tag[2].nic  TagReceivedAcknowledgement  ETV
vector 1306  _01_RfidSim.tag[205].nic  TagReceivedAcknowledgement  ETV
vector 2114  _01_RfidSim.tag[407].nic  TagReceivedAcknowledgement  ETV
vector 1986  _01_RfidSim.tag[375].nic  TagReceivedAcknowledgement  ETV
vector 2038  _01_RfidSim.tag[388].nic  TagReceivedAcknowledgement  ETV
vector 578  _01_RfidSim.tag[23].nic  TagReceivedAcknowledgement  ETV
vector 1958  _01_RfidSim.tag[368].nic  TagReceivedAcknowledgement  ETV
vector 558  _01_RfidSim.tag[18].nic  TagReceivedAcknowledgement  ETV
vector 590  _01_RfidSim.tag[26].nic  TagReceivedAcknowledgement  ETV
vector 1950  _01_RfidSim.tag[366].nic  TagReceivedAcknowledgement  ETV
vector 1570  _01_RfidSim.tag[271].nic  TagReceivedAcknowledgement  ETV
vector 1282  _01_RfidSim.tag[199].nic  TagReceivedAcknowledgement  ETV
vector 582  _01_RfidSim.tag[24].nic  TagReceivedAcknowledgement  ETV
vector 702  _01_RfidSim.tag[54].nic  TagReceivedAcknowledgement  ETV
vector 662  _01_RfidSim.tag[44].nic  TagReceivedAcknowledgement  ETV
vector 1478  _01_RfidSim.tag[248].nic  TagReceivedAcknowledgement  ETV
vector 506  _01_RfidSim.tag[5].nic  TagReceivedAcknowledgement  ETV
vector 1146  _01_RfidSim.tag[165].nic  TagReceivedAcknowledgement  ETV
vector 746  _01_RfidSim.tag[65].nic  TagReceivedAcknowledgement  ETV
vector 1358  _01_RfidSim.tag[218].nic  TagReceivedAcknowledgement  ETV
vector 1226  _01_RfidSim.tag[185].nic  TagReceivedAcknowledgement  ETV
vector 2090  _01_RfidSim.tag[401].nic  TagReceivedAcknowledgement  ETV
vector 1202  _01_RfidSim.tag[179].nic  TagReceivedAcknowledgement  ETV
vector 1726  _01_RfidSim.tag[310].nic  TagReceivedAcknowledgement  ETV
vector 2142  _01_RfidSim.tag[414].nic  TagReceivedAcknowledgement  ETV
vector 602  _01_RfidSim.tag[29].nic  TagReceivedAcknowledgement  ETV
vector 2014  _01_RfidSim.tag[382].nic  TagReceivedAcknowledgement  ETV
vector 1678  _01_RfidSim.tag[298].nic  TagReceivedAcknowledgement  ETV
vector 686  _01_RfidSim.tag[50].nic  TagReceivedAcknowledgement  ETV
vector 1142  _01_RfidSim.tag[164].nic  TagReceivedAcknowledgement  ETV
vector 1502  _01_RfidSim.tag[254].nic  TagReceivedAcknowledgement  ETV
vector 1026  _01_RfidSim.tag[135].nic  TagReceivedAcknowledgement  ETV
vector 1390  _01_RfidSim.tag[226].nic  TagReceivedAcknowledgement  ETV
vector 1418  _01_RfidSim.tag[233].nic  TagReceivedAcknowledgement  ETV
vector 1398  _01_RfidSim.tag[228].nic  TagReceivedAcknowledgement  ETV
vector 1110  _01_RfidSim.tag[156].nic  TagReceivedAcknowledgement  ETV
vector 1254  _01_RfidSim.tag[192].nic  TagReceivedAcknowledgement  ETV
vector 1222  _01_RfidSim.tag[184].nic  TagReceivedAcknowledgement  ETV
vector 690  _01_RfidSim.tag[51].nic  TagReceivedAcknowledgement  ETV
vector 834  _01_RfidSim.tag[87].nic  TagReceivedAcknowledgement  ETV
vector 1058  _01_RfidSim.tag[143].nic  TagReceivedAcknowledgement  ETV
vector 1838  _01_RfidSim.tag[338].nic  TagReceivedAcknowledgement  ETV
vector 866  _01_RfidSim.tag[95].nic  TagReceivedAcknowledgement  ETV
vector 1866  _01_RfidSim.tag[345].nic  TagReceivedAcknowledgement  ETV
vector 718  _01_RfidSim.tag[58].nic  TagReceivedAcknowledgement  ETV
vector 1926  _01_RfidSim.tag[360].nic  TagReceivedAcknowledgement  ETV
vector 1250  _01_RfidSim.tag[191].nic  TagReceivedAcknowledgement  ETV
vector 714  _01_RfidSim.tag[57].nic  TagReceivedAcknowledgement  ETV
vector 2210  _01_RfidSim.tag[431].nic  TagReceivedAcknowledgement  ETV
vector 1174  _01_RfidSim.tag[172].nic  TagReceivedAcknowledgement  ETV
vector 630  _01_RfidSim.tag[36].nic  TagReceivedAcknowledgement  ETV
vector 1198  _01_RfidSim.tag[178].nic  TagReceivedAcknowledgement  ETV
vector 1194  _01_RfidSim.tag[177].nic  TagReceivedAcknowledgement  ETV
vector 1542  _01_RfidSim.tag[264].nic  TagReceivedAcknowledgement  ETV
vector 1646  _01_RfidSim.tag[290].nic  TagReceivedAcknowledgement  ETV
vector 1362  _01_RfidSim.tag[219].nic  TagReceivedAcknowledgement  ETV
vector 1930  _01_RfidSim.tag[361].nic  TagReceivedAcknowledgement  ETV
vector 666  _01_RfidSim.tag[45].nic  TagReceivedAcknowledgement  ETV
vector 1230  _01_RfidSim.tag[186].nic  TagReceivedAcknowledgement  ETV
vector 1526  _01_RfidSim.tag[260].nic  TagReceivedAcknowledgement  ETV
vector 1310  _01_RfidSim.tag[206].nic  TagReceivedAcknowledgement  ETV
vector 1190  _01_RfidSim.tag[176].nic  TagReceivedAcknowledgement  ETV
vector 1482  _01_RfidSim.tag[249].nic  TagReceivedAcknowledgement  ETV
vector 1534  _01_RfidSim.tag[262].nic  TagReceivedAcknowledgement  ETV
vector 1650  _01_RfidSim.tag[291].nic  TagReceivedAcknowledgement  ETV
vector 1506  _01_RfidSim.tag[255].nic  TagReceivedAcknowledgement  ETV
vector 1114  _01_RfidSim.tag[157].nic  TagReceivedAcknowledgement  ETV
vector 1486  _01_RfidSim.tag[250].nic  TagReceivedAcknowledgement  ETV
vector 1594  _01_RfidSim.tag[277].nic  TagReceivedAcknowledgement  ETV
vector 1342  _01_RfidSim.tag[214].nic  TagReceivedAcknowledgement  ETV
vector 1234  _01_RfidSim.tag[187].nic  TagReceivedAcknowledgement  ETV
vector 1246  _01_RfidSim.tag[190].nic  TagReceivedAcknowledgement  ETV
vector 1218  _01_RfidSim.tag[183].nic  TagReceivedAcknowledgement  ETV
vector 1954  _01_RfidSim.tag[367].nic  TagReceivedAcknowledgement  ETV
vector 1338  _01_RfidSim.tag[213].nic  TagReceivedAcknowledgement  ETV
vector 1642  _01_RfidSim.tag[289].nic  TagReceivedAcknowledgement  ETV
vector 1702  _01_RfidSim.tag[304].nic  TagReceivedAcknowledgement  ETV
vector 1334  _01_RfidSim.tag[212].nic  TagReceivedAcknowledgement  ETV
vector 1054  _01_RfidSim.tag[142].nic  TagReceivedAcknowledgement  ETV
vector 1870  _01_RfidSim.tag[346].nic  TagReceivedAcknowledgement  ETV
vector 1090  _01_RfidSim.tag[151].nic  TagReceivedAcknowledgement  ETV
vector 1302  _01_RfidSim.tag[204].nic  TagReceivedAcknowledgement  ETV
vector 2130  _01_RfidSim.tag[411].nic  TagReceivedAcknowledgement  ETV
vector 1734  _01_RfidSim.tag[312].nic  TagReceivedAcknowledgement  ETV
vector 2034  _01_RfidSim.tag[387].nic  TagReceivedAcknowledgement  ETV
vector 1554  _01_RfidSim.tag[267].nic  TagReceivedAcknowledgement  ETV
vector 838  _01_RfidSim.tag[88].nic  TagReceivedAcknowledgement  ETV