version 2
run Experiment5_25staticReaders_81TagsGrid-0-20150406-10:09:07-12764
attr configname Experiment5_25staticReaders_81TagsGrid
attr datetime 20150406-10:09:07
attr experiment Experiment5_25staticReaders_81TagsGrid
attr inifile omnetpp.ini
attr iterationvars ""
attr iterationvars2 $repetition=0
attr measurement ""
attr network _01_RfidSim
attr processid 12764
attr repetition 0
attr replication #0
attr resultdir results
attr runnumber 0
attr seedset 0

vector 530  _01_RfidSim.reader[0].nic.phy  RadioState  ETV
vector 531  _01_RfidSim.reader[0].nic.phy  RadioChannel  ETV
vector 532  _01_RfidSim.reader[1].nic.phy  RadioState  ETV
vector 533  _01_RfidSim.reader[1].nic.phy  RadioChannel  ETV
vector 534  _01_RfidSim.reader[2].nic.phy  RadioState  ETV
vector 535  _01_RfidSim.reader[2].nic.phy  RadioChannel  ETV
vector 536  _01_RfidSim.reader[3].nic.phy  RadioState  ETV
vector 537  _01_RfidSim.reader[3].nic.phy  RadioChannel  ETV
vector 538  _01_RfidSim.reader[4].nic.phy  RadioState  ETV
vector 539  _01_RfidSim.reader[4].nic.phy  RadioChannel  ETV
vector 540  _01_RfidSim.reader[5].nic.phy  RadioState  ETV
vector 541  _01_RfidSim.reader[5].nic.phy  RadioChannel  ETV
vector 542  _01_RfidSim.reader[6].nic.phy  RadioState  ETV
vector 543  _01_RfidSim.reader[6].nic.phy  RadioChannel  ETV
vector 544  _01_RfidSim.reader[7].nic.phy  RadioState  ETV
vector 545  _01_RfidSim.reader[7].nic.phy  RadioChannel  ETV
vector 546  _01_RfidSim.reader[8].nic.phy  RadioState  ETV
vector 547  _01_RfidSim.reader[8].nic.phy  RadioChannel  ETV
vector 548  _01_RfidSim.reader[9].nic.phy  RadioState  ETV
vector 549  _01_RfidSim.reader[9].nic.phy  RadioChannel  ETV
vector 550  _01_RfidSim.reader[10].nic.phy  RadioState  ETV
vector 551  _01_RfidSim.reader[10].nic.phy  RadioChannel  ETV
vector 552  _01_RfidSim.reader[11].nic.phy  RadioState  ETV
vector 553  _01_RfidSim.reader[11].nic.phy  RadioChannel  ETV
vector 554  _01_RfidSim.reader[12].nic.phy  RadioState  ETV
vector 555  _01_RfidSim.reader[12].nic.phy  RadioChannel  ETV
vector 556  _01_RfidSim.reader[13].nic.phy  RadioState  ETV
vector 557  _01_RfidSim.reader[13].nic.phy  RadioChannel  ETV
vector 558  _01_RfidSim.reader[14].nic.phy  RadioState  ETV
vector 559  _01_RfidSim.reader[14].nic.phy  RadioChannel  ETV
vector 560  _01_RfidSim.reader[15].nic.phy  RadioState  ETV
vector 561  _01_RfidSim.reader[15].nic.phy  RadioChannel  ETV
vector 562  _01_RfidSim.reader[16].nic.phy  RadioState  ETV
vector 563  _01_RfidSim.reader[16].nic.phy  RadioChannel  ETV
vector 564  _01_RfidSim.reader[17].nic.phy  RadioState  ETV
vector 565  _01_RfidSim.reader[17].nic.phy  RadioChannel  ETV
vector 566  _01_RfidSim.reader[18].nic.phy  RadioState  ETV
vector 567  _01_RfidSim.reader[18].nic.phy  RadioChannel  ETV
vector 568  _01_RfidSim.reader[19].nic.phy  RadioState  ETV
vector 569  _01_RfidSim.reader[19].nic.phy  RadioChannel  ETV
vector 570  _01_RfidSim.reader[20].nic.phy  RadioState  ETV
vector 571  _01_RfidSim.reader[20].nic.phy  RadioChannel  ETV
vector 572  _01_RfidSim.reader[21].nic.phy  RadioState  ETV
vector 573  _01_RfidSim.reader[21].nic.phy  RadioChannel  ETV
vector 574  _01_RfidSim.reader[22].nic.phy  RadioState  ETV
vector 575  _01_RfidSim.reader[22].nic.phy  RadioChannel  ETV
vector 576  _01_RfidSim.reader[23].nic.phy  RadioState  ETV
vector 577  _01_RfidSim.reader[23].nic.phy  RadioChannel  ETV
vector 578  _01_RfidSim.reader[24].nic.phy  RadioState  ETV
vector 579  _01_RfidSim.reader[24].nic.phy  RadioChannel  ETV
vector 179  _01_RfidSim.reader[18].nic  TagReceivedQuery  ETV
vector 183  _01_RfidSim.reader[19].nic  TagReceivedQuery  ETV
vector 199  _01_RfidSim.reader[23].nic  TagReceivedQuery  ETV
vector 487  _01_RfidSim.tag[70].nic  TagReceivedQuery  ETV
vector 519  _01_RfidSim.tag[78].nic  TagReceivedQuery  ETV
vector 523  _01_RfidSim.tag[79].nic  TagReceivedQuery  ETV
vector 527  _01_RfidSim.tag[80].nic  TagReceivedQuery  ETV
vector 119  _01_RfidSim.reader[3].nic  TagReceivedQuery  ETV
vector 139  _01_RfidSim.reader[8].nic  TagReceivedQuery  ETV
vector 143  _01_RfidSim.reader[9].nic  TagReceivedQuery  ETV
vector 231  _01_RfidSim.tag[6].nic  TagReceivedQuery  ETV
vector 235  _01_RfidSim.tag[7].nic  TagReceivedQuery  ETV
vector 239  _01_RfidSim.tag[8].nic  TagReceivedQuery  ETV
vector 271  _01_RfidSim.tag[16].nic  TagReceivedQuery  ETV
vector 131  _01_RfidSim.reader[6].nic  TagReceivedQuery  ETV
vector 135  _01_RfidSim.reader[7].nic  TagReceivedQuery  ETV
vector 151  _01_RfidSim.reader[11].nic  TagReceivedQuery  ETV
vector 159  _01_RfidSim.reader[13].nic  TagReceivedQuery  ETV
vector 175  _01_RfidSim.reader[17].nic  TagReceivedQuery  ETV
vector 295  _01_RfidSim.tag[22].nic  TagReceivedQuery  ETV
vector 331  _01_RfidSim.tag[31].nic  TagReceivedQuery  ETV
vector 363  _01_RfidSim.tag[39].nic  TagReceivedQuery  ETV
vector 367  _01_RfidSim.tag[40].nic  TagReceivedQuery  ETV
vector 371  _01_RfidSim.tag[41].nic  TagReceivedQuery  ETV
vector 403  _01_RfidSim.tag[49].nic  TagReceivedQuery  ETV
vector 439  _01_RfidSim.tag[58].nic  TagReceivedQuery  ETV
vector 111  _01_RfidSim.reader[1].nic  TagReceivedQuery  ETV
vector 127  _01_RfidSim.reader[5].nic  TagReceivedQuery  ETV
vector 207  _01_RfidSim.tag[0].nic  TagReceivedQuery  ETV
vector 211  _01_RfidSim.tag[1].nic  TagReceivedQuery  ETV
vector 215  _01_RfidSim.tag[2].nic  TagReceivedQuery  ETV
vector 247  _01_RfidSim.tag[10].nic  TagReceivedQuery  ETV
vector 167  _01_RfidSim.reader[15].nic  TagReceivedQuery  ETV
vector 187  _01_RfidSim.reader[20].nic  TagReceivedQuery  ETV
vector 195  _01_RfidSim.reader[22].nic  TagReceivedQuery  ETV
vector 467  _01_RfidSim.tag[65].nic  TagReceivedQuery  ETV
vector 471  _01_RfidSim.tag[66].nic  TagReceivedQuery  ETV
vector 503  _01_RfidSim.tag[74].nic  TagReceivedQuery  ETV
vector 507  _01_RfidSim.tag[75].nic  TagReceivedQuery  ETV
vector 203  _01_RfidSim.reader[24].nic  TagReceivedQuery  ETV
vector 479  _01_RfidSim.tag[68].nic  TagReceivedQuery  ETV
vector 483  _01_RfidSim.tag[69].nic  TagReceivedQuery  ETV
vector 515  _01_RfidSim.tag[77].nic  TagReceivedQuery  ETV
vector 219  _01_RfidSim.tag[3].nic  TagReceivedQuery  ETV
vector 223  _01_RfidSim.tag[4].nic  TagReceivedQuery  ETV
vector 227  _01_RfidSim.tag[5].nic  TagReceivedQuery  ETV
vector 259  _01_RfidSim.tag[13].nic  TagReceivedQuery  ETV
vector 107  _01_RfidSim.reader[0].nic  TagReceivedQuery  ETV
vector 147  _01_RfidSim.reader[10].nic  TagReceivedQuery  ETV
vector 251  _01_RfidSim.tag[11].nic  TagReceivedQuery  ETV
vector 279  _01_RfidSim.tag[18].nic  TagReceivedQuery  ETV
vector 283  _01_RfidSim.tag[19].nic  TagReceivedQuery  ETV
vector 287  _01_RfidSim.tag[20].nic  TagReceivedQuery  ETV
vector 319  _01_RfidSim.tag[28].nic  TagReceivedQuery  ETV
vector 123  _01_RfidSim.reader[4].nic  TagReceivedQuery  ETV
vector 163  _01_RfidSim.reader[14].nic  TagReceivedQuery  ETV
vector 267  _01_RfidSim.tag[15].nic  TagReceivedQuery  ETV
vector 303  _01_RfidSim.tag[24].nic  TagReceivedQuery  ETV
vector 307  _01_RfidSim.tag[25].nic  TagReceivedQuery  ETV
vector 311  _01_RfidSim.tag[26].nic  TagReceivedQuery  ETV
vector 343  _01_RfidSim.tag[34].nic  TagReceivedQuery  ETV
vector 171  _01_RfidSim.reader[16].nic  TagReceivedQuery  ETV
vector 191  _01_RfidSim.reader[21].nic  TagReceivedQuery  ETV
vector 463  _01_RfidSim.tag[64].nic  TagReceivedQuery  ETV
vector 495  _01_RfidSim.tag[72].nic  TagReceivedQuery  ETV
vector 499  _01_RfidSim.tag[73].nic  TagReceivedQuery  ETV
vector 475  _01_RfidSim.tag[67].nic  TagReceivedQuery  ETV
vector 511  _01_RfidSim.tag[76].nic  TagReceivedQuery  ETV
vector 375  _01_RfidSim.tag[42].nic  TagReceivedQuery  ETV
vector 379  _01_RfidSim.tag[43].nic  TagReceivedQuery  ETV
vector 383  _01_RfidSim.tag[44].nic  TagReceivedQuery  ETV
vector 415  _01_RfidSim.tag[52].nic  TagReceivedQuery  ETV
vector 451  _01_RfidSim.tag[61].nic  TagReceivedQuery  ETV
vector 391  _01_RfidSim.tag[46].nic  TagReceivedQuery  ETV
vector 423  _01_RfidSim.tag[54].nic  TagReceivedQuery  ETV
vector 427  _01_RfidSim.tag[55].nic  TagReceivedQuery  ETV
vector 431  _01_RfidSim.tag[56].nic  TagReceivedQuery  ETV
vector 115  _01_RfidSim.reader[2].nic  TagReceivedQuery  ETV
vector 155  _01_RfidSim.reader[12].nic  TagReceivedQuery  ETV
vector 255  _01_RfidSim.tag[12].nic  TagReceivedQuery  ETV
vector 263  _01_RfidSim.tag[14].nic  TagReceivedQuery  ETV
vector 291  _01_RfidSim.tag[21].nic  TagReceivedQuery  ETV
vector 299  _01_RfidSim.tag[23].nic  TagReceivedQuery  ETV
vector 323  _01_RfidSim.tag[29].nic  TagReceivedQuery  ETV
vector 327  _01_RfidSim.tag[30].nic  TagReceivedQuery  ETV
vector 447  _01_RfidSim.tag[60].nic  TagReceivedQuery  ETV
vector 455  _01_RfidSim.tag[62].nic  TagReceivedQuery  ETV
vector 168  _01_RfidSim.reader[15].nic  ReaderSendAcknowledgement  ETV
vector 184  _01_RfidSim.reader[19].nic  ReaderSendAcknowledgement  ETV
vector 426  _01_RfidSim.tag[55].nic  TagReceivedAcknowledgement  ETV
vector 446  _01_RfidSim.tag[60].nic  TagReceivedAcknowledgement  ETV
vector 196  _01_RfidSim.reader[22].nic  ReaderSendAcknowledgement  ETV
vector 120  _01_RfidSim.reader[3].nic  ReaderSendAcknowledgement  ETV
vector 510  _01_RfidSim.tag[76].nic  TagReceivedAcknowledgement  ETV
vector 226  _01_RfidSim.tag[5].nic  TagReceivedAcknowledgement  ETV
vector 422  _01_RfidSim.tag[54].nic  TagReceivedAcknowledgement  ETV
vector 414  _01_RfidSim.tag[52].nic  TagReceivedAcknowledgement  ETV
vector 335  _01_RfidSim.tag[32].nic  TagReceivedQuery  ETV
vector 339  _01_RfidSim.tag[33].nic  TagReceivedQuery  ETV
vector 498  _01_RfidSim.tag[73].nic  TagReceivedAcknowledgement  ETV
vector 108  _01_RfidSim.reader[0].nic  ReaderSendAcknowledgement  ETV
vector 206  _01_RfidSim.tag[0].nic  TagReceivedAcknowledgement  ETV
vector 128  _01_RfidSim.reader[5].nic  ReaderSendAcknowledgement  ETV
vector 278  _01_RfidSim.tag[18].nic  TagReceivedAcknowledgement  ETV
vector 200  _01_RfidSim.reader[23].nic  ReaderSendAcknowledgement  ETV
vector 116  _01_RfidSim.reader[2].nic  ReaderSendAcknowledgement  ETV
vector 359  _01_RfidSim.tag[38].nic  TagReceivedQuery  ETV
vector 395  _01_RfidSim.tag[47].nic  TagReceivedQuery  ETV
vector 399  _01_RfidSim.tag[48].nic  TagReceivedQuery  ETV
vector 435  _01_RfidSim.tag[57].nic  TagReceivedQuery  ETV
vector 478  _01_RfidSim.tag[68].nic  TagReceivedAcknowledgement  ETV
vector 188  _01_RfidSim.reader[20].nic  ReaderSendAcknowledgement  ETV
vector 136  _01_RfidSim.reader[7].nic  ReaderSendAcknowledgement  ETV
vector 474  _01_RfidSim.tag[67].nic  TagReceivedAcknowledgement  ETV
vector 298  _01_RfidSim.tag[23].nic  TagReceivedAcknowledgement  ETV
vector 210  _01_RfidSim.tag[1].nic  TagReceivedAcknowledgement  ETV
vector 407  _01_RfidSim.tag[50].nic  TagReceivedQuery  ETV
vector 411  _01_RfidSim.tag[51].nic  TagReceivedQuery  ETV
vector 443  _01_RfidSim.tag[59].nic  TagReceivedQuery  ETV
vector 462  _01_RfidSim.tag[64].nic  TagReceivedAcknowledgement  ETV
vector 222  _01_RfidSim.tag[4].nic  TagReceivedAcknowledgement  ETV
vector 246  _01_RfidSim.tag[10].nic  TagReceivedAcknowledgement  ETV
vector 466  _01_RfidSim.tag[65].nic  TagReceivedAcknowledgement  ETV
vector 140  _01_RfidSim.reader[8].nic  ReaderSendAcknowledgement  ETV
vector 502  _01_RfidSim.tag[74].nic  TagReceivedAcknowledgement  ETV
vector 214  _01_RfidSim.tag[2].nic  TagReceivedAcknowledgement  ETV
vector 204  _01_RfidSim.reader[24].nic  ReaderSendAcknowledgement  ETV
vector 526  _01_RfidSim.tag[80].nic  TagReceivedAcknowledgement  ETV
vector 180  _01_RfidSim.reader[18].nic  ReaderSendAcknowledgement  ETV
vector 410  _01_RfidSim.tag[51].nic  TagReceivedAcknowledgement  ETV
vector 258  _01_RfidSim.tag[13].nic  TagReceivedAcknowledgement  ETV
vector 390  _01_RfidSim.tag[46].nic  TagReceivedAcknowledgement  ETV
vector 514  _01_RfidSim.tag[77].nic  TagReceivedAcknowledgement  ETV
vector 262  _01_RfidSim.tag[14].nic  TagReceivedAcknowledgement  ETV
vector 172  _01_RfidSim.reader[16].nic  ReaderSendAcknowledgement  ETV
vector 124  _01_RfidSim.reader[4].nic  ReaderSendAcknowledgement  ETV
vector 230  _01_RfidSim.tag[6].nic  TagReceivedAcknowledgement  ETV
vector 282  _01_RfidSim.tag[19].nic  TagReceivedAcknowledgement  ETV
vector 442  _01_RfidSim.tag[59].nic  TagReceivedAcknowledgement  ETV
vector 250  _01_RfidSim.tag[11].nic  TagReceivedAcknowledgement  ETV
vector 486  _01_RfidSim.tag[70].nic  TagReceivedAcknowledgement  ETV
vector 351  _01_RfidSim.tag[36].nic  TagReceivedQuery  ETV
vector 355  _01_RfidSim.tag[37].nic  TagReceivedQuery  ETV
vector 156  _01_RfidSim.reader[12].nic  ReaderSendAcknowledgement  ETV
vector 402  _01_RfidSim.tag[49].nic  TagReceivedAcknowledgement  ETV
vector 522  _01_RfidSim.tag[79].nic  TagReceivedAcknowledgement  ETV
vector 318  _01_RfidSim.tag[28].nic  TagReceivedAcknowledgement  ETV
vector 366  _01_RfidSim.tag[40].nic  TagReceivedAcknowledgement  ETV
vector 144  _01_RfidSim.reader[9].nic  ReaderSendAcknowledgement  ETV
vector 148  _01_RfidSim.reader[10].nic  ReaderSendAcknowledgement  ETV
vector 266  _01_RfidSim.tag[15].nic  TagReceivedAcknowledgement  ETV
vector 350  _01_RfidSim.tag[36].nic  TagReceivedAcknowledgement  ETV
vector 164  _01_RfidSim.reader[14].nic  ReaderSendAcknowledgement  ETV
vector 306  _01_RfidSim.tag[25].nic  TagReceivedAcknowledgement  ETV
vector 270  _01_RfidSim.tag[16].nic  TagReceivedAcknowledgement  ETV
vector 450  _01_RfidSim.tag[61].nic  TagReceivedAcknowledgement  ETV
vector 330  _01_RfidSim.tag[31].nic  TagReceivedAcknowledgement  ETV
vector 454  _01_RfidSim.tag[62].nic  TagReceivedAcknowledgement  ETV
vector 334  _01_RfidSim.tag[32].nic  TagReceivedAcknowledgement  ETV
vector 406  _01_RfidSim.tag[50].nic  TagReceivedAcknowledgement  ETV
vector 430  _01_RfidSim.tag[56].nic  TagReceivedAcknowledgement  ETV
vector 438  _01_RfidSim.tag[58].nic  TagReceivedAcknowledgement  ETV
vector 176  _01_RfidSim.reader[17].nic  ReaderSendAcknowledgement  ETV
vector 342  _01_RfidSim.tag[34].nic  TagReceivedAcknowledgement  ETV
vector 192  _01_RfidSim.reader[21].nic  ReaderSendAcknowledgement  ETV
vector 378  _01_RfidSim.tag[43].nic  TagReceivedAcknowledgement  ETV
vector 470  _01_RfidSim.tag[66].nic  TagReceivedAcknowledgement  ETV
vector 112  _01_RfidSim.reader[1].nic  ReaderSendAcknowledgement  ETV
vector 254  _01_RfidSim.tag[12].nic  TagReceivedAcknowledgement  ETV
vector 374  _01_RfidSim.tag[42].nic  TagReceivedAcknowledgement  ETV
vector 132  _01_RfidSim.reader[6].nic  ReaderSendAcknowledgement  ETV
vector 326  _01_RfidSim.tag[30].nic  TagReceivedAcknowledgement  ETV
vector 302  _01_RfidSim.tag[24].nic  TagReceivedAcknowledgement  ETV
vector 482  _01_RfidSim.tag[69].nic  TagReceivedAcknowledgement  ETV
vector 286  _01_RfidSim.tag[20].nic  TagReceivedAcknowledgement  ETV
vector 338  _01_RfidSim.tag[33].nic  TagReceivedAcknowledgement  ETV
vector 354  _01_RfidSim.tag[37].nic  TagReceivedAcknowledgement  ETV
vector 518  _01_RfidSim.tag[78].nic  TagReceivedAcknowledgement  ETV
vector 152  _01_RfidSim.reader[11].nic  ReaderSendAcknowledgement  ETV
vector 358  _01_RfidSim.tag[38].nic  TagReceivedAcknowledgement  ETV
vector 394  _01_RfidSim.tag[47].nic  TagReceivedAcknowledgement  ETV
vector 290  _01_RfidSim.tag[21].nic  TagReceivedAcknowledgement  ETV
vector 362  _01_RfidSim.tag[39].nic  TagReceivedAcknowledgement  ETV
vector 398  _01_RfidSim.tag[48].nic  TagReceivedAcknowledgement  ETV
vector 160  _01_RfidSim.reader[13].nic  ReaderSendAcknowledgement  ETV
vector 322  _01_RfidSim.tag[29].nic  TagReceivedAcknowledgement  ETV
vector 434  _01_RfidSim.tag[57].nic  TagReceivedAcknowledgement  ETV
vector 370  _01_RfidSim.tag[41].nic  TagReceivedAcknowledgement  ETV
107	1092	0.001614	117
107	1755	0.002864	117
107	2240	0.003594	117
108	6119	0.008395262736	117
108	11869	0.014371263736	117
108	13386	0.016351263736	117
111	715	0.000924	124
111	1019	0.001464	124
111	1560	0.002314	124
111	1757	0.002864	124
112	34591	0.048979266736	124
115	1563	0.002314	131
115	1760	0.002864	131
115	2242	0.003594	131
115	4695	0.006608827958	131
116	8310	0.01065643954	131
116	15795	0.019791263736	131
119	597	0.000904	138
119	1021	0.001464	138
119	1565	0.002314	138
119	4697	0.006608827958	138
120	3941	0.005694827958	138
123	1153	0.001654	145
123	2009	0.003164	145
123	4699	0.006608827958	145
124	19187	0.024391263736	145
127	718	0.000924	152
127	1762	0.002864	152
127	2244	0.003594	152
127	22901	0.029920484576	152
128	7664	0.009955262736	152
128	10179	0.012751263736	152
128	19426	0.024710484576	152
128	21802	0.028170484576	152
128	24260	0.031510484576	152
131	635	0.000904	159
131	1023	0.001464	159
131	1568	0.002314	159
131	2246	0.003594	159
131	8381	0.010829262736	159
132	36213	0.052199266736	159
132	37352	0.054139266736	159
135	637	0.000904	166
135	1025	0.001464	166
135	1764	0.002864	166
135	2248	0.003594	166
135	4701	0.006608827958	166
136	9623	0.01217643954	166
136	11217	0.01375643954	166
136	16912	0.021311263736	166
136	42173	0.066695267736	166
139	600	0.000904	173
139	1028	0.001464	173
139	1430	0.002184	173
139	2012	0.003164	173
139	14420	0.01784904444	173
140	12606	0.01533504444	173
140	30236	0.040819266736	173
140	38681	0.056555267736	173
143	603	0.000904	180
143	1432	0.002184	180
143	2014	0.003164	180
143	4703	0.006608827958	180
143	14422	0.01784904444	180
144	25175	0.033023265736	180
144	27833	0.037463265736	180
144	32880	0.045759266736	180
144	36464	0.052555267736	180
147	1096	0.001614	187
147	1498	0.002244	187
147	1766	0.002864	187
147	8386	0.010829262736	187
147	13918	0.017074484576	187
148	25210	0.033030484576	187
148	26085	0.034570484576	187
148	29030	0.039122486576	187
148	30127	0.040802486576	187
148	38119	0.055659266736	187
148	39071	0.057299266736	187
151	641	0.000904	194
151	1098	0.001614	194
151	1501	0.002244	194
151	1769	0.002864	194
151	13921	0.017074484576	194
152	39836	0.059399266736	194
152	40624	0.061379266736	194
152	43402	0.070055267736	194
152	44326	0.072015267736	194
152	44985	0.074015267736	194
155	1573	0.002314	201
155	1772	0.002864	201
155	18929	0.024084484576	201
156	23332	0.030426386511	201
156	24514	0.031986386511	201
156	28928	0.039099266736	201
156	31920	0.043859266736	201
156	42667	0.068535267736	201
156	45479	0.075635267736	201
159	643	0.000904	208
159	1156	0.001654	208
159	1434	0.002184	208
159	1831	0.002974	208
159	10482	0.01310841829	208
160	43591	0.070375267736	208
160	44524	0.072435267736	208
163	1159	0.001654	215
163	1833	0.002974	215
163	10484	0.01310841829	215
163	14425	0.01784904444	215
164	26984	0.035943265736	215
164	28814	0.039083265736	215
164	33703	0.047379266736	215
164	34746	0.049379266736	215
167	758	0.000944	222
167	1258	0.001714	222
167	13924	0.017074484576	222
167	22905	0.029920484576	222
168	2617	0.004294224347	222
168	4115	0.005954224347	222
168	5443	0.007554224347	222
168	12045	0.014600484576	222
168	15879	0.019810484576	222
168	31208	0.042402486576	222
171	1261	0.001714	229
171	1503	0.002244	229
171	18934	0.024084484576	229
172	18283	0.023210484576	229
172	21091	0.027366386511	229
175	648	0.000904	236
175	973	0.001434	236
175	1390	0.002044	236
175	10486	0.01310841829	236
176	32694	0.045379266736	236
176	41406	0.064175267736	236
179	546	0.000844	243
179	976	0.001434	243
179	1392	0.002044	243
179	1835	0.002974	243
179	14428	0.01784904444	243
180	15343	0.019159008273	243
180	20175	0.025859008273	243
180	21228	0.027459008273	243
180	31107	0.042339266736	243
180	40520	0.061179266736	243
183	548	0.000844	250
183	979	0.001434	250
183	1437	0.002184	250
183	10488	0.01310841829	250
184	2717	0.004329483981	250
184	4252	0.005969483981	250
184	23851	0.031099008273	250
184	30033	0.040603265736	250
184	37092	0.053719266736	250
187	763	0.000944	257
187	1506	0.002244	257
187	13927	0.017074484576	257
188	9022	0.011380484576	257
188	10391	0.013020484576	257
188	13270	0.016180484576	257
191	1263	0.001714	264
191	1508	0.002244	264
191	13929	0.017074484576	264
191	18937	0.024084484576	264
192	33800	0.047479266736	264
195	766	0.000944	271
195	981	0.001434	271
195	10490	0.01310841829	271
195	13931	0.017074484576	271
195	18939	0.024084484576	271
196	3868	0.00555441829	271
196	9534	0.01205441829	271
196	16831	0.021239008273	271
199	551	0.000844	278
199	1395	0.002044	278
199	1838	0.002974	278
199	10492	0.01310841829	278
200	8182	0.01053441829	278
200	39383	0.058179266736	278
203	984	0.001434	285
203	1840	0.002974	285
203	10494	0.01310841829	285
204	13892	0.016994600983	285
204	22403	0.029099008273	285
206	6593	0.008699262736	292
207	723	0.000924	292
210	10441	0.013055263736	299
211	727	0.000924	299
211	1103	0.001614	299
214	13737	0.016655263736	306
215	731	0.000924	306
215	1776	0.002864	306
215	2252	0.003594	306
219	1032	0.001464	313
219	1780	0.002864	313
219	2256	0.003594	313
222	11558	0.01406043954	320
223	1036	0.001464	320
223	1579	0.002314	320
226	4335	0.005998827958	327
226	8653	0.01096043954	327
227	1040	0.001464	327
227	2018	0.003164	327
227	4710	0.006608827958	327
230	19349	0.024695263736	334
231	608	0.000904	334
231	2022	0.003164	334
231	4714	0.006608827958	334
235	612	0.000904	341
235	1165	0.001654	341
239	616	0.000904	348
246	12123	0.014675263736	362
247	737	0.000924	362
247	1110	0.001614	362
250	21956	0.028474484576	369
251	1114	0.001614	369
251	1786	0.002864	369
251	2262	0.003594	369
254	34660	0.049283266736	376
255	1586	0.002314	376
255	1790	0.002864	376
255	2266	0.003594	376
258	16108	0.020095263736	383
259	1047	0.001464	383
259	1590	0.002314	383
262	17140	0.021615263736	390
263	1594	0.002314	390
263	2028	0.003164	390
263	4720	0.006608827958	390
266	25295	0.033327265736	397
267	1171	0.001654	397
267	2032	0.003164	397
267	4725	0.006608827958	397
270	27974	0.037767265736	404
271	622	0.000904	404
271	1175	0.001654	404
278	8003	0.010259262736	418
279	1119	0.001614	418
282	19593	0.025014484576	425
282	26315	0.034874484576	425
283	1123	0.001614	425
283	22918	0.029920484576	425
286	37621	0.054443266736	432
287	1127	0.001614	432
287	1796	0.002864	432
290	42278	0.066999267736	439
291	1600	0.002314	439
291	1800	0.002864	439
291	8401	0.010829262736	439
295	660	0.000904	446
295	1604	0.002314	446
298	9962	0.01248043954	453
298	12864	0.01563904444	453
298	43686	0.070679267736	453
299	1609	0.002314	453
299	4731	0.006608827958	453
299	14440	0.01784904444	453
302	36590	0.052859267736	460
303	1181	0.001654	460
303	4735	0.006608827958	460
306	27141	0.036247265736	467
307	1185	0.001654	467
307	1449	0.002184	467
311	1189	0.001654	474
318	24350	0.031814484576	488
318	38324	0.055963266736	488
319	1133	0.001614	488
319	22925	0.029920484576	488
322	44426	0.072319267736	495
323	1806	0.002864	495
323	8407	0.010829262736	495
326	36349	0.052503266736	502
327	1810	0.002864	502
327	8411	0.010829262736	502
330	29210	0.039403266736	509
331	668	0.000904	509
331	1616	0.002314	509
334	30484	0.041123266736	516
335	4742	0.006608827958	516
335	14447	0.01784904444	516
338	38915	0.056859267736	523
339	4746	0.006608827958	523
339	14452	0.01784904444	523
342	33057	0.046063266736	530
343	1195	0.001654	530
343	1456	0.002184	530
350	25376	0.033334484576	544
351	22931	0.029920484576	544
354	39240	0.057603266736	551
355	22935	0.029920484576	551
358	39948	0.059703266736	558
359	8417	0.010829262736	558
359	22939	0.029920484576	558
362	42787	0.068839267736	565
363	675	0.000904	565
363	8421	0.010829262736	565
366	24833	0.032290386511	572
367	679	0.000904	572
370	45599	0.075939267736	579
371	683	0.000904	579
371	14459	0.01784904444	579
374	34906	0.049683266736	586
375	1462	0.002184	586
375	14464	0.01784904444	586
378	33884	0.047683266736	593
379	1466	0.002184	593
383	1470	0.002184	600
390	16171	0.020114484576	614
390	30398	0.041106486576	614
391	1521	0.002244	614
391	22945	0.029920484576	614
394	40809	0.061683266736	621
395	8428	0.010829262736	621
395	13944	0.017074484576	621
398	43516	0.070359267736	628
399	8432	0.010829262736	628
399	13949	0.017074484576	628
402	23641	0.030730386511	635
403	690	0.000904	635
403	18955	0.024084484576	635
406	31341	0.042643266736	642
407	10509	0.01310841829	642
407	14471	0.01784904444	642
410	15645	0.019463008273	649
410	44640	0.072739267736	649
411	10513	0.01310841829	649
411	14475	0.01784904444	649
414	4515	0.006273483981	656
415	1476	0.002184	656
415	1854	0.002974	656
422	4454	0.006258224347	670
423	1527	0.002244	670
426	2880	0.004598224347	677
426	29310	0.039426486576	677
427	1531	0.002244	677
427	22952	0.029920484576	677
430	31475	0.042706486576	684
431	1535	0.002244	684
431	13956	0.017074484576	684
434	45106	0.074319267736	691
435	8439	0.010829262736	691
435	13961	0.017074484576	691
435	18963	0.024084484576	691
438	32184	0.044163266736	698
439	698	0.000904	698
439	18968	0.024084484576	698
442	20308	0.026163008273	705
442	41519	0.064479267736	705
443	10519	0.01310841829	705
443	14481	0.01784904444	705
443	18972	0.024084484576	705
446	2954	0.004633483981	712
446	21586	0.027763008273	712
447	1860	0.002974	712
447	10523	0.01310841829	712
450	29142	0.039387265736	719
451	1483	0.002184	719
451	1864	0.002974	719
454	30321	0.040907265736	726
455	1868	0.002974	726
462	10862	0.013324484576	740
463	1273	0.001714	740
463	1541	0.002244	740
466	12369	0.014904484576	747
466	18522	0.023514484576	747
467	780	0.000944	747
467	1545	0.002244	747
467	13968	0.017074484576	747
470	33956	0.047783266736	754
471	784	0.000944	754
471	13972	0.017074484576	754
471	18978	0.024084484576	754
474	9876	0.01235841829	761
475	1406	0.002044	761
475	18983	0.024084484576	761
478	8499	0.01083841829	768
478	40732	0.061483266736	768
479	997	0.001434	768
479	10529	0.01310841829	768
479	18987	0.024084484576	768
482	37236	0.054023266736	775
483	1001	0.001434	775
483	1873	0.002974	775
483	10533	0.01310841829	775
486	22647	0.029403008273	782
487	563	0.000844	782
487	1877	0.002974	782
495	1279	0.001714	796
498	5777	0.007858224347	803
498	9283	0.011684484576	803
499	1283	0.001714	803
499	1551	0.002244	803
502	13571	0.016484484576	810
502	21389	0.027670386511	810
503	790	0.000944	810
503	1287	0.001714	810
503	13979	0.017074484576	810
507	794	0.000944	817
507	1413	0.002044	817
507	13983	0.017074484576	817
510	4069	0.00585841829	824
510	32817	0.045683266736	824
511	1417	0.002044	824
511	18995	0.024084484576	824
514	17007	0.021543008273	831
515	1007	0.001434	831
515	1421	0.002044	831
515	10540	0.01310841829	831
518	39521	0.058483266736	838
519	569	0.000844	838
519	1011	0.001434	838
519	10545	0.01310841829	838
522	24084	0.031403008273	845
523	573	0.000844	845
523	1884	0.002974	845
526	14162	0.017298600983	852
527	577	0.000844	852
530	0	0	0
530	416	0.000444	3
530	416	0.000444	1
530	712	0.000924	3
530	712	0.000924	0
530	5503	0.007591262736	3
530	5503	0.007591262736	1
530	5782	0.007895262736	3
530	5782	0.007895262736	0
530	6119	0.008395262736	3
530	6119	0.008395262736	1
530	6583	0.008699262736	3
530	6583	0.008699262736	0
530	11124	0.013567263736	3
530	11124	0.013567263736	1
530	11346	0.013871263736	3
530	11346	0.013871263736	0
530	11869	0.014371263736	3
530	11869	0.014371263736	1
530	12101	0.014675263736	3
530	12101	0.014675263736	0
530	12778	0.015547263736	3
530	12778	0.015547263736	1
530	13037	0.015851263736	3
530	13037	0.015851263736	0
530	13386	0.016351263736	3
530	13386	0.016351263736	1
530	13722	0.016655263736	3
530	13722	0.016655263736	0
531	0	0	1
532	0	0	0
532	1895	0.003114	3
532	1895	0.003114	1
532	2237	0.003594	3
532	2237	0.003594	0
532	34113	0.048175266736	3
532	34113	0.048175266736	1
532	34250	0.048479266736	3
532	34250	0.048479266736	0
532	34591	0.048979266736	3
532	34591	0.048979266736	1
532	34636	0.049283266736	3
532	34636	0.049283266736	0
533	0	0	1
534	0	0	0
534	839	0.000984	3
534	839	0.000984	1
534	1016	0.001464	3
534	1016	0.001464	0
534	7596	0.00985243954	3
534	7596	0.00985243954	1
534	7844	0.01015643954	3
534	7844	0.01015643954	0
534	8310	0.01065643954	3
534	8310	0.01065643954	1
534	8633	0.01096043954	3
534	8633	0.01096043954	0
534	15133	0.018987263736	3
534	15133	0.018987263736	1
534	15383	0.019291263736	3
534	15383	0.019291263736	0
534	15795	0.019791263736	3
534	15795	0.019791263736	1
534	16082	0.020095263736	3
534	16082	0.020095263736	0
535	0	0	1
536	0	0	0
536	1723	0.002684	3
536	1723	0.002684	1
536	2005	0.003164	3
536	2005	0.003164	0
536	3199	0.004890827958	3
536	3199	0.004890827958	1
536	3532	0.005194827958	3
536	3532	0.005194827958	0
536	3941	0.005694827958	3
536	3941	0.005694827958	1
536	4317	0.005998827958	3
536	4317	0.005998827958	0
537	0	0	1
538	0	0	0
538	321	0.000424	3
538	321	0.000424	1
538	592	0.000904	3
538	592	0.000904	0
538	18638	0.023587263736	3
538	18638	0.023587263736	1
538	18770	0.023891263736	3
538	18770	0.023891263736	0
538	19187	0.024391263736	3
538	19187	0.024391263736	1
538	19338	0.024695263736	3
538	19338	0.024695263736	0
539	0	0	1
540	0	0	0
540	871	0.001134	3
540	871	0.001134	1
540	1089	0.001614	3
540	1089	0.001614	0
540	7047	0.009151262736	3
540	7047	0.009151262736	1
540	7259	0.009455262736	3
540	7259	0.009455262736	0
540	7664	0.009955262736	3
540	7664	0.009955262736	1
540	7975	0.010259262736	3
540	7975	0.010259262736	0
540	9444	0.011947263736	3
540	9444	0.011947263736	1
540	9763	0.012251263736	3
540	9763	0.012251263736	0
540	10179	0.012751263736	3
540	10179	0.012751263736	1
540	10426	0.013055263736	3
540	10426	0.013055263736	0
540	18885	0.023906484576	3
540	18885	0.023906484576	1
540	19051	0.024210484576	3
540	19051	0.024210484576	0
540	19426	0.024710484576	3
540	19426	0.024710484576	1
540	19563	0.025014484576	3