version 2
run Experiment10_100staticReaders_81TagsGrid-0-20150406-10:16:17-2868
attr configname Experiment10_100staticReaders_81TagsGrid
attr datetime 20150406-10:16:17
attr experiment Experiment10_100staticReaders_81TagsGrid
attr inifile omnetpp.ini
attr iterationvars ""
attr iterationvars2 $repetition=0
attr measurement ""
attr network _01_RfidSim
attr processid 2868
attr repetition 0
attr replication #0
attr resultdir results
attr runnumber 0
attr seedset 0

vector 905  _01_RfidSim.reader[0].nic.phy  RadioState  ETV
vector 906  _01_RfidSim.reader[0].nic.phy  RadioChannel  ETV
vector 907  _01_RfidSim.reader[1].nic.phy  RadioState  ETV
vector 908  _01_RfidSim.reader[1].nic.phy  RadioChannel  ETV
vector 909  _01_RfidSim.reader[2].nic.phy  RadioState  ETV
vector 910  _01_RfidSim.reader[2].nic.phy  RadioChannel  ETV
vector 911  _01_RfidSim.reader[3].nic.phy  RadioState  ETV
vector 912  _01_RfidSim.reader[3].nic.phy  RadioChannel  ETV
vector 913  _01_RfidSim.reader[4].nic.phy  RadioState  ETV
vector 914  _01_RfidSim.reader[4].nic.phy  RadioChannel  ETV
vector 915  _01_RfidSim.reader[5].nic.phy  RadioState  ETV
vector 916  _01_RfidSim.reader[5].nic.phy  RadioChannel  ETV
vector 917  _01_RfidSim.reader[6].nic.phy  RadioState  ETV
vector 918  _01_RfidSim.reader[6].nic.phy  RadioChannel  ETV
vector 919  _01_RfidSim.reader[7].nic.phy  RadioState  ETV
vector 920  _01_RfidSim.reader[7].nic.phy  RadioChannel  ETV
vector 921  _01_RfidSim.reader[8].nic.phy  RadioState  ETV
vector 922  _01_RfidSim.reader[8].nic.phy  RadioChannel  ETV
vector 923  _01_RfidSim.reader[9].nic.phy  RadioState  ETV
vector 924  _01_RfidSim.reader[9].nic.phy  RadioChannel  ETV
vector 925  _01_RfidSim.reader[10].nic.phy  RadioState  ETV
vector 926  _01_RfidSim.reader[10].nic.phy  RadioChannel  ETV
vector 927  _01_RfidSim.reader[11].nic.phy  RadioState  ETV
vector 928  _01_RfidSim.reader[11].nic.phy  RadioChannel  ETV
vector 929  _01_RfidSim.reader[12].nic.phy  RadioState  ETV
vector 930  _01_RfidSim.reader[12].nic.phy  RadioChannel  ETV
vector 931  _01_RfidSim.reader[13].nic.phy  RadioState  ETV
vector 932  _01_RfidSim.reader[13].nic.phy  RadioChannel  ETV
vector 933  _01_RfidSim.reader[14].nic.phy  RadioState  ETV
vector 934  _01_RfidSim.reader[14].nic.phy  RadioChannel  ETV
vector 935  _01_RfidSim.reader[15].nic.phy  RadioState  ETV
vector 936  _01_RfidSim.reader[15].nic.phy  RadioChannel  ETV
vector 937  _01_RfidSim.reader[16].nic.phy  RadioState  ETV
vector 938  _01_RfidSim.reader[16].nic.phy  RadioChannel  ETV
vector 939  _01_RfidSim.reader[17].nic.phy  RadioState  ETV
vector 940  _01_RfidSim.reader[17].nic.phy  RadioChannel  ETV
vector 941  _01_RfidSim.reader[18].nic.phy  RadioState  ETV
vector 942  _01_RfidSim.reader[18].nic.phy  RadioChannel  ETV
vector 943  _01_RfidSim.reader[19].nic.phy  RadioState  ETV
vector 944  _01_RfidSim.reader[19].nic.phy  RadioChannel  ETV
vector 945  _01_RfidSim.reader[20].nic.phy  RadioState  ETV
vector 946  _01_RfidSim.reader[20].nic.phy  RadioChannel  ETV
vector 947  _01_RfidSim.reader[21].nic.phy  RadioState  ETV
vector 948  _01_RfidSim.reader[21].nic.phy  RadioChannel  ETV
vector 949  _01_RfidSim.reader[22].nic.phy  RadioState  ETV
vector 950  _01_RfidSim.reader[22].nic.phy  RadioChannel  ETV
vector 951  _01_RfidSim.reader[23].nic.phy  RadioState  ETV
vector 952  _01_RfidSim.reader[23].nic.phy  RadioChannel  ETV
vector 953  _01_RfidSim.reader[24].nic.phy  RadioState  ETV
vector 954  _01_RfidSim.reader[24].nic.phy  RadioChannel  ETV
vector 955  _01_RfidSim.reader[25].nic.phy  RadioState  ETV
vector 956  _01_RfidSim.reader[25].nic.phy  RadioChannel  ETV
vector 957  _01_RfidSim.reader[26].nic.phy  RadioState  ETV
vector 958  _01_RfidSim.reader[26].nic.phy  RadioChannel  ETV
vector 959  _01_RfidSim.reader[27].nic.phy  RadioState  ETV
vector 960  _01_RfidSim.reader[27].nic.phy  RadioChannel  ETV
vector 961  _01_RfidSim.reader[28].nic.phy  RadioState  ETV
vector 962  _01_RfidSim.reader[28].nic.phy  RadioChannel  ETV
vector 963  _01_RfidSim.reader[29].nic.phy  RadioState  ETV
vector 964  _01_RfidSim.reader[29].nic.phy  RadioChannel  ETV
vector 965  _01_RfidSim.reader[30].nic.phy  RadioState  ETV
vector 966  _01_RfidSim.reader[30].nic.phy  RadioChannel  ETV
vector 967  _01_RfidSim.reader[31].nic.phy  RadioState  ETV
vector 968  _01_RfidSim.reader[31].nic.phy  RadioChannel  ETV
vector 969  _01_RfidSim.reader[32].nic.phy  RadioState  ETV
vector 970  _01_RfidSim.reader[32].nic.phy  RadioChannel  ETV
vector 971  _01_RfidSim.reader[33].nic.phy  RadioState  ETV
vector 972  _01_RfidSim.reader[33].nic.phy  RadioChannel  ETV
vector 973  _01_RfidSim.reader[34].nic.phy  RadioState  ETV
vector 974  _01_RfidSim.reader[34].nic.phy  RadioChannel  ETV
vector 975  _01_RfidSim.reader[35].nic.phy  RadioState  ETV
vector 976  _01_RfidSim.reader[35].nic.phy  RadioChannel  ETV
vector 977  _01_RfidSim.reader[36].nic.phy  RadioState  ETV
vector 978  _01_RfidSim.reader[36].nic.phy  RadioChannel  ETV
vector 979  _01_RfidSim.reader[37].nic.phy  RadioState  ETV
vector 980  _01_RfidSim.reader[37].nic.phy  RadioChannel  ETV
vector 981  _01_RfidSim.reader[38].nic.phy  RadioState  ETV
vector 982  _01_RfidSim.reader[38].nic.phy  RadioChannel  ETV
vector 983  _01_RfidSim.reader[39].nic.phy  RadioState  ETV
vector 984  _01_RfidSim.reader[39].nic.phy  RadioChannel  ETV
vector 985  _01_RfidSim.reader[40].nic.phy  RadioState  ETV
vector 986  _01_RfidSim.reader[40].nic.phy  RadioChannel  ETV
vector 987  _01_RfidSim.reader[41].nic.phy  RadioState  ETV
vector 988  _01_RfidSim.reader[41].nic.phy  RadioChannel  ETV
vector 989  _01_RfidSim.reader[42].nic.phy  RadioState  ETV
vector 990  _01_RfidSim.reader[42].nic.phy  RadioChannel  ETV
vector 991  _01_RfidSim.reader[43].nic.phy  RadioState  ETV
vector 992  _01_RfidSim.reader[43].nic.phy  RadioChannel  ETV
vector 993  _01_RfidSim.reader[44].nic.phy  RadioState  ETV
vector 994  _01_RfidSim.reader[44].nic.phy  RadioChannel  ETV
vector 995  _01_RfidSim.reader[45].nic.phy  RadioState  ETV
vector 996  _01_RfidSim.reader[45].nic.phy  RadioChannel  ETV
vector 997  _01_RfidSim.reader[46].nic.phy  RadioState  ETV
vector 998  _01_RfidSim.reader[46].nic.phy  RadioChannel  ETV
vector 999  _01_RfidSim.reader[47].nic.phy  RadioState  ETV
vector 1000  _01_RfidSim.reader[47].nic.phy  RadioChannel  ETV
vector 1001  _01_RfidSim.reader[48].nic.phy  RadioState  ETV
vector 1002  _01_RfidSim.reader[48].nic.phy  RadioChannel  ETV
vector 1003  _01_RfidSim.reader[49].nic.phy  RadioState  ETV
vector 1004  _01_RfidSim.reader[49].nic.phy  RadioChannel  ETV
vector 1005  _01_RfidSim.reader[50].nic.phy  RadioState  ETV
vector 1006  _01_RfidSim.reader[50].nic.phy  RadioChannel  ETV
vector 1007  _01_RfidSim.reader[51].nic.phy  RadioState  ETV
vector 1008  _01_RfidSim.reader[51].nic.phy  RadioChannel  ETV
vector 1009  _01_RfidSim.reader[52].nic.phy  RadioState  ETV
vector 1010  _01_RfidSim.reader[52].nic.phy  RadioChannel  ETV
vector 1011  _01_RfidSim.reader[53].nic.phy  RadioState  ETV
vector 1012  _01_RfidSim.reader[53].nic.phy  RadioChannel  ETV
vector 1013  _01_RfidSim.reader[54].nic.phy  RadioState  ETV
vector 1014  _01_RfidSim.reader[54].nic.phy  RadioChannel  ETV
vector 1015  _01_RfidSim.reader[55].nic.phy  RadioState  ETV
vector 1016  _01_RfidSim.reader[55].nic.phy  RadioChannel  ETV
vector 1017  _01_RfidSim.reader[56].nic.phy  RadioState  ETV
vector 1018  _01_RfidSim.reader[56].nic.phy  RadioChannel  ETV
vector 1019  _01_RfidSim.reader[57].nic.phy  RadioState  ETV
vector 1020  _01_RfidSim.reader[57].nic.phy  RadioChannel  ETV
vector 1021  _01_RfidSim.reader[58].nic.phy  RadioState  ETV
vector 1022  _01_RfidSim.reader[58].nic.phy  RadioChannel  ETV
vector 1023  _01_RfidSim.reader[59].nic.phy  RadioState  ETV
vector 1024  _01_RfidSim.reader[59].nic.phy  RadioChannel  ETV
vector 1025  _01_RfidSim.reader[60].nic.phy  RadioState  ETV
vector 1026  _01_RfidSim.reader[60].nic.phy  RadioChannel  ETV
vector 1027  _01_RfidSim.reader[61].nic.phy  RadioState  ETV
vector 1028  _01_RfidSim.reader[61].nic.phy  RadioChannel  ETV
vector 1029  _01_RfidSim.reader[62].nic.phy  RadioState  ETV
vector 1030  _01_RfidSim.reader[62].nic.phy  RadioChannel  ETV
vector 1031  _01_RfidSim.reader[63].nic.phy  RadioState  ETV
vector 1032  _01_RfidSim.reader[63].nic.phy  RadioChannel  ETV
vector 1033  _01_RfidSim.reader[64].nic.phy  RadioState  ETV
vector 1034  _01_RfidSim.reader[64].nic.phy  RadioChannel  ETV
vector 1035  _01_RfidSim.reader[65].nic.phy  RadioState  ETV
vector 1036  _01_RfidSim.reader[65].nic.phy  RadioChannel  ETV
vector 1037  _01_RfidSim.reader[66].nic.phy  RadioState  ETV
vector 1038  _01_RfidSim.reader[66].nic.phy  RadioChannel  ETV
vector 1039  _01_RfidSim.reader[67].nic.phy  RadioState  ETV
vector 1040  _01_RfidSim.reader[67].nic.phy  RadioChannel  ETV
vector 1041  _01_RfidSim.reader[68].nic.phy  RadioState  ETV
vector 1042  _01_RfidSim.reader[68].nic.phy  RadioChannel  ETV
vector 1043  _01_RfidSim.reader[69].nic.phy  RadioState  ETV
vector 1044  _01_RfidSim.reader[69].nic.phy  RadioChannel  ETV
vector 1045  _01_RfidSim.reader[70].nic.phy  RadioState  ETV
vector 1046  _01_RfidSim.reader[70].nic.phy  RadioChannel  ETV
vector 1047  _01_RfidSim.reader[71].nic.phy  RadioState  ETV
vector 1048  _01_RfidSim.reader[71].nic.phy  RadioChannel  ETV
vector 1049  _01_RfidSim.reader[72].nic.phy  RadioState  ETV
vector 1050  _01_RfidSim.reader[72].nic.phy  RadioChannel  ETV
vector 1051  _01_RfidSim.reader[73].nic.phy  RadioState  ETV
vector 1052  _01_RfidSim.reader[73].nic.phy  RadioChannel  ETV
vector 1053  _01_RfidSim.reader[74].nic.phy  RadioState  ETV
vector 1054  _01_RfidSim.reader[74].nic.phy  RadioChannel  ETV
vector 1055  _01_RfidSim.reader[75].nic.phy  RadioState  ETV
vector 1056  _01_RfidSim.reader[75].nic.phy  RadioChannel  ETV
vector 1057  _01_RfidSim.reader[76].nic.phy  RadioState  ETV
vector 1058  _01_RfidSim.reader[76].nic.phy  RadioChannel  ETV
vector 1059  _01_RfidSim.reader[77].nic.phy  RadioState  ETV
vector 1060  _01_RfidSim.reader[77].nic.phy  RadioChannel  ETV
vector 1061  _01_RfidSim.reader[78].nic.phy  RadioState  ETV
vector 1062  _01_RfidSim.reader[78].nic.phy  RadioChannel  ETV
vector 1063  _01_RfidSim.reader[79].nic.phy  RadioState  ETV
vector 1064  _01_RfidSim.reader[79].nic.phy  RadioChannel  ETV
vector 1065  _01_RfidSim.reader[80].nic.phy  RadioState  ETV
vector 1066  _01_RfidSim.reader[80].nic.phy  RadioChannel  ETV
vector 1067  _01_RfidSim.reader[81].nic.phy  RadioState  ETV
vector 1068  _01_RfidSim.reader[81].nic.phy  RadioChannel  ETV
vector 1069  _01_RfidSim.reader[82].nic.phy  RadioState  ETV
vector 1070  _01_RfidSim.reader[82].nic.phy  RadioChannel  ETV
vector 1071  _01_RfidSim.reader[83].nic.phy  RadioState  ETV
vector 1072  _01_RfidSim.reader[83].nic.phy  RadioChannel  ETV
vector 1073  _01_RfidSim.reader[84].nic.phy  RadioState  ETV
vector 1074  _01_RfidSim.reader[84].nic.phy  RadioChannel  ETV
vector 1075  _01_RfidSim.reader[85].nic.phy  RadioState  ETV
vector 1076  _01_RfidSim.reader[85].nic.phy  RadioChannel  ETV
vector 1077  _01_RfidSim.reader[86].nic.phy  RadioState  ETV
vector 1078  _01_RfidSim.reader[86].nic.phy  RadioChannel  ETV
vector 1079  _01_RfidSim.reader[87].nic.phy  RadioState  ETV
vector 1080  _01_RfidSim.reader[87].nic.phy  RadioChannel  ETV
vector 1081  _01_RfidSim.reader[88].nic.phy  RadioState  ETV
vector 1082  _01_RfidSim.reader[88].nic.phy  RadioChannel  ETV
vector 1083  _01_RfidSim.reader[89].nic.phy  RadioState  ETV
vector 1084  _01_RfidSim.reader[89].nic.phy  RadioChannel  ETV
vector 1085  _01_RfidSim.reader[90].nic.phy  RadioState  ETV
vector 1086  _01_RfidSim.reader[90].nic.phy  RadioChannel  ETV
vector 1087  _01_RfidSim.reader[91].nic.phy  RadioState  ETV
vector 1088  _01_RfidSim.reader[91].nic.phy  RadioChannel  ETV
vector 1089  _01_RfidSim.reader[92].nic.phy  RadioState  ETV
vector 1090  _01_RfidSim.reader[92].nic.phy  RadioChannel  ETV
vector 1091  _01_RfidSim.reader[93].nic.phy  RadioState  ETV
vector 1092  _01_RfidSim.reader[93].nic.phy  RadioChannel  ETV
vector 1093  _01_RfidSim.reader[94].nic.phy  RadioState  ETV
vector 1094  _01_RfidSim.reader[94].nic.phy  RadioChannel  ETV
vector 1095  _01_RfidSim.reader[95].nic.phy  RadioState  ETV
vector 1096  _01_RfidSim.reader[95].nic.phy  RadioChannel  ETV
vector 1097  _01_RfidSim.reader[96].nic.phy  RadioState  ETV
vector 1098  _01_RfidSim.reader[96].nic.phy  RadioChannel  ETV
vector 1099  _01_RfidSim.reader[97].nic.phy  RadioState  ETV
vector 1100  _01_RfidSim.reader[97].nic.phy  RadioChannel  ETV
vector 1101  _01_RfidSim.reader[98].nic.phy  RadioState  ETV
vector 1102  _01_RfidSim.reader[98].nic.phy  RadioChannel  ETV
vector 1103  _01_RfidSim.reader[99].nic.phy  RadioState  ETV
vector 1104  _01_RfidSim.reader[99].nic.phy  RadioChannel  ETV
vector 190  _01_RfidSim.reader[2].nic  TagReceivedQuery  ETV
vector 194  _01_RfidSim.reader[3].nic  TagReceivedQuery  ETV
vector 198  _01_RfidSim.reader[4].nic  TagReceivedQuery  ETV
vector 206  _01_RfidSim.reader[6].nic  TagReceivedQuery  ETV
vector 230  _01_RfidSim.reader[12].nic  TagReceivedQuery  ETV
vector 234  _01_RfidSim.reader[13].nic  TagReceivedQuery  ETV
vector 238  _01_RfidSim.reader[14].nic  TagReceivedQuery  ETV
vector 242  _01_RfidSim.reader[15].nic  TagReceivedQuery  ETV
vector 246  _01_RfidSim.reader[16].nic  TagReceivedQuery  ETV
vector 274  _01_RfidSim.reader[23].nic  TagReceivedQuery  ETV
vector 278  _01_RfidSim.reader[24].nic  TagReceivedQuery  ETV
vector 282  _01_RfidSim.reader[25].nic  TagReceivedQuery  ETV
vector 286  _01_RfidSim.reader[26].nic  TagReceivedQuery  ETV
vector 314  _01_RfidSim.reader[33].nic  TagReceivedQuery  ETV
vector 318  _01_RfidSim.reader[34].nic  TagReceivedQuery  ETV
vector 322  _01_RfidSim.reader[35].nic  TagReceivedQuery  ETV
vector 326  _01_RfidSim.reader[36].nic  TagReceivedQuery  ETV
vector 358  _01_RfidSim.reader[44].nic  TagReceivedQuery  ETV
vector 362  _01_RfidSim.reader[45].nic  TagReceivedQuery  ETV
vector 598  _01_RfidSim.tag[4].nic  TagReceivedQuery  ETV
vector 602  _01_RfidSim.tag[5].nic  TagReceivedQuery  ETV
vector 634  _01_RfidSim.tag[13].nic  TagReceivedQuery  ETV
vector 638  _01_RfidSim.tag[14].nic  TagReceivedQuery  ETV
vector 218  _01_RfidSim.reader[9].nic  TagReceivedQuery  ETV
vector 258  _01_RfidSim.reader[19].nic  TagReceivedQuery  ETV
vector 294  _01_RfidSim.reader[28].nic  TagReceivedQuery  ETV
vector 298  _01_RfidSim.reader[29].nic  TagReceivedQuery  ETV
vector 334  _01_RfidSim.reader[38].nic  TagReceivedQuery  ETV
vector 338  _01_RfidSim.reader[39].nic  TagReceivedQuery  ETV
vector 606  _01_RfidSim.tag[6].nic  TagReceivedQuery  ETV
vector 642  _01_RfidSim.tag[15].nic  TagReceivedQuery  ETV
vector 182  _01_RfidSim.reader[0].nic  TagReceivedQuery  ETV
vector 186  _01_RfidSim.reader[1].nic  TagReceivedQuery  ETV
vector 222  _01_RfidSim.reader[10].nic  TagReceivedQuery  ETV
vector 226  _01_RfidSim.reader[11].nic  TagReceivedQuery  ETV
vector 262  _01_RfidSim.reader[20].nic  TagReceivedQuery  ETV
vector 266  _01_RfidSim.reader[21].nic  TagReceivedQuery  ETV
vector 270  _01_RfidSim.reader[22].nic  TagReceivedQuery  ETV
vector 302  _01_RfidSim.reader[30].nic  TagReceivedQuery  ETV
vector 306  _01_RfidSim.reader[31].nic  TagReceivedQuery  ETV
vector 310  _01_RfidSim.reader[32].nic  TagReceivedQuery  ETV
vector 346  _01_RfidSim.reader[41].nic  TagReceivedQuery  ETV
vector 350  _01_RfidSim.reader[42].nic  TagReceivedQuery  ETV
vector 354  _01_RfidSim.reader[43].nic  TagReceivedQuery  ETV
vector 382  _01_RfidSim.reader[50].nic  TagReceivedQuery  ETV
vector 386  _01_RfidSim.reader[51].nic  TagReceivedQuery  ETV
vector 390  _01_RfidSim.reader[52].nic  TagReceivedQuery  ETV
vector 394  _01_RfidSim.reader[53].nic  TagReceivedQuery  ETV
vector 422  _01_RfidSim.reader[60].nic  TagReceivedQuery  ETV
vector 426  _01_RfidSim.reader[61].nic  TagReceivedQuery  ETV
vector 430  _01_RfidSim.reader[62].nic  TagReceivedQuery  ETV
vector 466  _01_RfidSim.reader[71].nic  TagReceivedQuery  ETV
vector 470  _01_RfidSim.reader[72].nic  TagReceivedQuery  ETV
vector 658  _01_RfidSim.tag[19].nic  TagReceivedQuery  ETV
vector 690  _01_RfidSim.tag[27].nic  TagReceivedQuery  ETV
vector 694  _01_RfidSim.tag[28].nic  TagReceivedQuery  ETV
vector 698  _01_RfidSim.tag[29].nic  TagReceivedQuery  ETV
vector 726  _01_RfidSim.tag[36].nic  TagReceivedQuery  ETV
vector 730  _01_RfidSim.tag[37].nic  TagReceivedQuery  ETV
vector 734  _01_RfidSim.tag[38].nic  TagReceivedQuery  ETV
vector 766  _01_RfidSim.tag[46].nic  TagReceivedQuery  ETV
vector 378  _01_RfidSim.reader[49].nic  TagReceivedQuery  ETV
vector 398  _01_RfidSim.reader[54].nic  TagReceivedQuery  ETV
vector 402  _01_RfidSim.reader[55].nic  TagReceivedQuery  ETV
vector 406  _01_RfidSim.reader[56].nic  TagReceivedQuery  ETV
vector 410  _01_RfidSim.reader[57].nic  TagReceivedQuery  ETV
vector 414  _01_RfidSim.reader[58].nic  TagReceivedQuery  ETV
vector 418  _01_RfidSim.reader[59].nic  TagReceivedQuery  ETV
vector 438  _01_RfidSim.reader[64].nic  TagReceivedQuery  ETV
vector 442  _01_RfidSim.reader[65].nic  TagReceivedQuery  ETV
vector 446  _01_RfidSim.reader[66].nic  TagReceivedQuery  ETV
vector 454  _01_RfidSim.reader[68].nic  TagReceivedQuery  ETV
vector 458  _01_RfidSim.reader[69].nic  TagReceivedQuery  ETV
vector 478  _01_RfidSim.reader[74].nic  TagReceivedQuery  ETV
vector 482  _01_RfidSim.reader[75].nic  TagReceivedQuery  ETV
vector 486  _01_RfidSim.reader[76].nic  TagReceivedQuery  ETV
vector 490  _01_RfidSim.reader[77].nic  TagReceivedQuery  ETV
vector 494  _01_RfidSim.reader[78].nic  TagReceivedQuery  ETV
vector 498  _01_RfidSim.reader[79].nic  TagReceivedQuery  ETV
vector 522  _01_RfidSim.reader[85].nic  TagReceivedQuery  ETV
vector 526  _01_RfidSim.reader[86].nic  TagReceivedQuery  ETV
vector 530  _01_RfidSim.reader[87].nic  TagReceivedQuery  ETV
vector 534  _01_RfidSim.reader[88].nic  TagReceivedQuery  ETV
vector 538  _01_RfidSim.reader[89].nic  TagReceivedQuery  ETV
vector 562  _01_RfidSim.reader[95].nic  TagReceivedQuery  ETV
vector 566  _01_RfidSim.reader[96].nic  TagReceivedQuery  ETV
vector 570  _01_RfidSim.reader[97].nic  TagReceivedQuery  ETV
vector 574  _01_RfidSim.reader[98].nic  TagReceivedQuery  ETV
vector 578  _01_RfidSim.reader[99].nic  TagReceivedQuery  ETV
vector 746  _01_RfidSim.tag[41].nic  TagReceivedQuery  ETV
vector 750  _01_RfidSim.tag[42].nic  TagReceivedQuery  ETV
vector 782  _01_RfidSim.tag[50].nic  TagReceivedQuery  ETV
vector 786  _01_RfidSim.tag[51].nic  TagReceivedQuery  ETV
vector 818  _01_RfidSim.tag[59].nic  TagReceivedQuery  ETV
vector 822  _01_RfidSim.tag[60].nic  TagReceivedQuery  ETV
vector 854  _01_RfidSim.tag[68].nic  TagReceivedQuery  ETV
vector 858  _01_RfidSim.tag[69].nic  TagReceivedQuery  ETV
vector 510  _01_RfidSim.reader[82].nic  TagReceivedQuery  ETV
vector 546  _01_RfidSim.reader[91].nic  TagReceivedQuery  ETV
vector 550  _01_RfidSim.reader[92].nic  TagReceivedQuery  ETV
vector 838  _01_RfidSim.tag[64].nic  TagReceivedQuery  ETV
vector 870  _01_RfidSim.tag[72].nic  TagReceivedQuery  ETV
vector 874  _01_RfidSim.tag[73].nic  TagReceivedQuery  ETV
vector 878  _01_RfidSim.tag[74].nic  TagReceivedQuery  ETV
vector 434  _01_RfidSim.reader[63].nic  TagReceivedQuery  ETV
vector 474  _01_RfidSim.reader[73].nic  TagReceivedQuery  ETV
vector 518  _01_RfidSim.reader[84].nic  TagReceivedQuery  ETV
vector 846  _01_RfidSim.tag[66].nic  TagReceivedQuery  ETV
vector 850  _01_RfidSim.tag[67].nic  TagReceivedQuery  ETV
vector 882  _01_RfidSim.tag[75].nic  TagReceivedQuery  ETV
vector 886  _01_RfidSim.tag[76].nic  TagReceivedQuery  ETV
vector 202  _01_RfidSim.reader[5].nic  TagReceivedQuery  ETV
vector 590  _01_RfidSim.tag[2].nic  TagReceivedQuery  ETV
vector 594  _01_RfidSim.tag[3].nic  TagReceivedQuery  ETV
vector 626  _01_RfidSim.tag[11].nic  TagReceivedQuery  ETV
vector 662  _01_RfidSim.tag[20].nic  TagReceivedQuery  ETV
vector 666  _01_RfidSim.tag[21].nic  TagReceivedQuery  ETV
vector 670  _01_RfidSim.tag[22].nic  TagReceivedQuery  ETV
vector 366  _01_RfidSim.reader[46].nic  TagReceivedQuery  ETV
vector 706  _01_RfidSim.tag[31].nic  TagReceivedQuery  ETV
vector 738  _01_RfidSim.tag[39].nic  TagReceivedQuery  ETV
vector 586  _01_RfidSim.tag[1].nic  TagReceivedQuery  ETV
vector 618  _01_RfidSim.tag[9].nic  TagReceivedQuery  ETV
vector 622  _01_RfidSim.tag[10].nic  TagReceivedQuery  ETV
vector 654  _01_RfidSim.tag[18].nic  TagReceivedQuery  ETV
vector 290  _01_RfidSim.reader[27].nic  TagReceivedQuery  ETV
vector 330  _01_RfidSim.reader[37].nic  TagReceivedQuery  ETV
vector 370  _01_RfidSim.reader[47].nic  TagReceivedQuery  ETV
vector 374  _01_RfidSim.reader[48].nic  TagReceivedQuery  ETV
vector 450  _01_RfidSim.reader[67].nic  TagReceivedQuery  ETV
vector 754  _01_RfidSim.tag[43].nic  TagReceivedQuery  ETV
vector 790  _01_RfidSim.tag[52].nic  TagReceivedQuery  ETV
vector 826  _01_RfidSim.tag[61].nic  TagReceivedQuery  ETV
vector 862  _01_RfidSim.tag[70].nic  TagReceivedQuery  ETV
vector 210  _01_RfidSim.reader[7].nic  TagReceivedQuery  ETV
vector 214  _01_RfidSim.reader[8].nic  TagReceivedQuery  ETV
vector 250  _01_RfidSim.reader[17].nic  TagReceivedQuery  ETV
vector 254  _01_RfidSim.reader[18].nic  TagReceivedQuery  ETV
vector 610  _01_RfidSim.tag[7].nic  TagReceivedQuery  ETV
vector 614  _01_RfidSim.tag[8].nic  TagReceivedQuery  ETV
vector 646  _01_RfidSim.tag[16].nic  TagReceivedQuery  ETV
vector 506  _01_RfidSim.reader[81].nic  TagReceivedQuery  ETV
vector 514  _01_RfidSim.reader[83].nic  TagReceivedQuery  ETV
vector 554  _01_RfidSim.reader[93].nic  TagReceivedQuery  ETV
vector 558  _01_RfidSim.reader[94].nic  TagReceivedQuery  ETV
vector 810  _01_RfidSim.tag[57].nic  TagReceivedQuery  ETV
vector 814  _01_RfidSim.tag[58].nic  TagReceivedQuery  ETV
vector 582  _01_RfidSim.tag[0].nic  TagReceivedQuery  ETV
vector 462  _01_RfidSim.reader[70].nic  TagReceivedQuery  ETV
vector 502  _01_RfidSim.reader[80].nic  TagReceivedQuery  ETV
vector 542  _01_RfidSim.reader[90].nic  TagReceivedQuery  ETV
vector 762  _01_RfidSim.tag[45].nic  TagReceivedQuery  ETV
vector 770  _01_RfidSim.tag[47].nic  TagReceivedQuery  ETV
vector 802  _01_RfidSim.tag[55].nic  TagReceivedQuery  ETV
vector 742  _01_RfidSim.tag[40].nic  TagReceivedQuery  ETV
vector 778  _01_RfidSim.tag[49].nic  TagReceivedQuery  ETV
vector 342  _01_RfidSim.reader[40].nic  TagReceivedQuery  ETV
vector 842  _01_RfidSim.tag[65].nic  TagReceivedQuery  ETV
vector 890  _01_RfidSim.tag[77].nic  TagReceivedQuery  ETV
vector 894  _01_RfidSim.tag[78].nic  TagReceivedQuery  ETV
vector 650  _01_RfidSim.tag[17].nic  TagReceivedQuery  ETV
vector 682  _01_RfidSim.tag[25].nic  TagReceivedQuery  ETV
vector 702  _01_RfidSim.tag[30].nic  TagReceivedQuery  ETV
vector 774  _01_RfidSim.tag[48].nic  TagReceivedQuery  ETV
vector 834  _01_RfidSim.tag[63].nic  TagReceivedQuery  ETV
vector 203  _01_RfidSim.reader[5].nic  ReaderSendAcknowledgement  ETV
vector 597  _01_RfidSim.tag[4].nic  TagReceivedAcknowledgement  ETV
vector 798  _01_RfidSim.tag[54].nic  TagReceivedQuery  ETV
vector 806  _01_RfidSim.tag[56].nic  TagReceivedQuery  ETV
vector 219  _01_RfidSim.reader[9].nic  ReaderSendAcknowledgement  ETV
vector 609  _01_RfidSim.tag[7].nic  TagReceivedAcknowledgement  ETV
vector 674  _01_RfidSim.tag[23].nic  TagReceivedQuery  ETV
vector 710  _01_RfidSim.tag[32].nic  TagReceivedQuery  ETV
vector 678  _01_RfidSim.tag[24].nic  TagReceivedQuery  ETV
vector 714  _01_RfidSim.tag[33].nic  TagReceivedQuery  ETV
vector 830  _01_RfidSim.tag[62].nic  TagReceivedQuery  ETV
vector 866  _01_RfidSim.tag[71].nic  TagReceivedQuery  ETV
vector 902  _01_RfidSim.tag[80].nic  TagReceivedQuery  ETV
vector 263  _01_RfidSim.reader[20].nic  ReaderSendAcknowledgement  ETV
vector 630  _01_RfidSim.tag[12].nic  TagReceivedQuery  ETV
vector 653  _01_RfidSim.tag[18].nic  TagReceivedAcknowledgement  ETV
vector 613  _01_RfidSim.tag[8].nic  TagReceivedAcknowledgement  ETV
vector 718  _01_RfidSim.tag[34].nic  TagReceivedQuery  ETV
vector 758  _01_RfidSim.tag[44].nic  TagReceivedQuery  ETV
vector 794  _01_RfidSim.tag[53].nic  TagReceivedQuery  ETV
vector 559  _01_RfidSim.reader[94].nic  ReaderSendAcknowledgement  ETV
vector 543  _01_RfidSim.reader[90].nic  ReaderSendAcknowledgement  ETV
vector 885  _01_RfidSim.tag[76].nic  TagReceivedAcknowledgement  ETV
vector 873  _01_RfidSim.tag[73].nic  TagReceivedAcknowledgement  ETV
vector 451  _01_RfidSim.reader[67].nic  ReaderSendAcknowledgement  ETV
vector 785  _01_RfidSim.tag[51].nic  TagReceivedAcknowledgement  ETV
vector 191  _01_RfidSim.reader[2].nic  ReaderSendAcknowledgement  ETV
vector 259  _01_RfidSim.reader[19].nic  ReaderSendAcknowledgement  ETV
vector 898  _01_RfidSim.tag[79].nic  TagReceivedQuery  ETV
vector 593  _01_RfidSim.tag[3].nic  TagReceivedAcknowledgement  ETV
vector 605  _01_RfidSim.tag[6].nic  TagReceivedAcknowledgement  ETV
vector 455  _01_RfidSim.reader[68].nic  ReaderSendAcknowledgement  ETV
vector 861  _01_RfidSim.tag[70].nic  TagReceivedAcknowledgement  ETV
vector 215  _01_RfidSim.reader[8].nic  ReaderSendAcknowledgement  ETV
vector 625  _01_RfidSim.tag[11].nic  TagReceivedAcknowledgement  ETV
vector 551  _01_RfidSim.reader[92].nic  ReaderSendAcknowledgement  ETV
vector 841  _01_RfidSim.tag[65].nic  TagReceivedAcknowledgement  ETV
vector 183  _01_RfidSim.reader[0].nic  ReaderSendAcknowledgement  ETV
vector 589  _01_RfidSim.tag[2].nic  TagReceivedAcknowledgement  ETV
vector 315  _01_RfidSim.reader[33].nic  ReaderSendAcknowledgement  ETV
vector 877  _01_RfidSim.tag[74].nic  TagReceivedAcknowledgement  ETV
vector 571  _01_RfidSim.reader[97].nic  ReaderSendAcknowledgement  ETV
vector 705  _01_RfidSim.tag[31].nic  TagReceivedAcknowledgement  ETV
vector 889  _01_RfidSim.tag[77].nic  TagReceivedAcknowledgement  ETV
vector 511  _01_RfidSim.reader[82].nic  ReaderSendAcknowledgement  ETV
vector 641  _01_RfidSim.tag[15].nic  TagReceivedAcknowledgement  ETV
vector 686  _01_RfidSim.tag[26].nic  TagReceivedQuery  ETV
vector 722  _01_RfidSim.tag[35].nic  TagReceivedQuery  ETV
vector 267  _01_RfidSim.reader[21].nic  ReaderSendAcknowledgement  ETV
vector 661  _01_RfidSim.tag[20].nic  TagReceivedAcknowledgement  ETV
vector 601  _01_RfidSim.tag[5].nic  TagReceivedAcknowledgement  ETV
vector 503  _01_RfidSim.reader[80].nic  ReaderSendAcknowledgement  ETV
vector 443  _01_RfidSim.reader[65].nic  ReaderSendAcknowledgement  ETV
vector 837  _01_RfidSim.tag[64].nic  TagReceivedAcknowledgement  ETV
vector 853  _01_RfidSim.tag[68].nic  TagReceivedAcknowledgement  ETV
vector 423  _01_RfidSim.reader[60].nic  ReaderSendAcknowledgement  ETV
vector 231  _01_RfidSim.reader[12].nic  ReaderSendAcknowledgement  ETV
vector 801  _01_RfidSim.tag[55].nic  TagReceivedAcknowledgement  ETV
vector 777  _01_RfidSim.tag[49].nic  TagReceivedAcknowledgement  ETV
vector 567  _01_RfidSim.reader[96].nic  ReaderSendAcknowledgement  ETV
vector 351  _01_RfidSim.reader[42].nic  ReaderSendAcknowledgement  ETV
vector 701  _01_RfidSim.tag[30].nic  TagReceivedAcknowledgement  ETV
vector 327  _01_RfidSim.reader[36].nic  ReaderSendAcknowledgement  ETV
vector 343  _01_RfidSim.reader[40].nic  ReaderSendAcknowledgement  ETV
vector 673  _01_RfidSim.tag[23].nic  TagReceivedAcknowledgement  ETV
vector 765  _01_RfidSim.tag[46].nic  TagReceivedAcknowledgement  ETV
vector 303  _01_RfidSim.reader[30].nic  ReaderSendAcknowledgement  ETV
vector 833  _01_RfidSim.tag[63].nic  TagReceivedAcknowledgement  ETV
vector 527  _01_RfidSim.reader[86].nic  ReaderSendAcknowledgement  ETV
vector 547  _01_RfidSim.reader[91].nic  ReaderSendAcknowledgement  ETV
vector 657  _01_RfidSim.tag[19].nic  TagReceivedAcknowledgement  ETV
vector 291  _01_RfidSim.reader[27].nic  ReaderSendAcknowledgement  ETV
vector 575  _01_RfidSim.reader[98].nic  ReaderSendAcknowledgement  ETV
vector 897  _01_RfidSim.tag[79].nic  TagReceivedAcknowledgement  ETV
vector 435  _01_RfidSim.reader[63].nic  ReaderSendAcknowledgement  ETV
vector 773  _01_RfidSim.tag[48].nic  TagReceivedAcknowledgement  ETV
vector 581  _01_RfidSim.tag[0].nic  TagReceivedAcknowledgement  ETV
vector 733  _01_RfidSim.tag[38].nic  TagReceivedAcknowledgement  ETV
vector 295  _01_RfidSim.reader[28].nic  ReaderSendAcknowledgement  ETV
vector 693  _01_RfidSim.tag[28].nic  TagReceivedAcknowledgement  ETV
vector 519  _01_RfidSim.reader[84].nic  ReaderSendAcknowledgement  ETV
vector 645  _01_RfidSim.tag[16].nic  TagReceivedAcknowledgement  ETV
vector 845  _01_RfidSim.tag[66].nic  TagReceivedAcknowledgement  ETV
vector 347  _01_RfidSim.reader[41].nic  ReaderSendAcknowledgement  ETV
vector 821  _01_RfidSim.tag[60].nic  TagReceivedAcknowledgement  ETV
vector 881  _01_RfidSim.tag[75].nic  TagReceivedAcknowledgement  ETV
vector 247  _01_RfidSim.reader[16].nic  ReaderSendAcknowledgement  ETV
vector 463  _01_RfidSim.reader[70].nic  ReaderSendAcknowledgement  ETV
vector 235  _01_RfidSim.reader[13].nic  ReaderSendAcknowledgement  ETV
vector 621  _01_RfidSim.tag[10].nic  TagReceivedAcknowledgement  ETV
vector 227  _01_RfidSim.reader[11].nic  ReaderSendAcknowledgement  ETV
vector 585  _01_RfidSim.tag[1].nic  TagReceivedAcknowledgement  ETV
vector 499  _01_RfidSim.reader[79].nic  ReaderSendAcknowledgement  ETV
vector 865  _01_RfidSim.tag[71].nic  TagReceivedAcknowledgement  ETV
vector 387  _01_RfidSim.reader[51].nic  ReaderSendAcknowledgement  ETV
vector 415  _01_RfidSim.reader[58].nic  ReaderSendAcknowledgement  ETV
vector 669  _01_RfidSim.tag[22].nic  TagReceivedAcknowledgement  ETV
vector 419  _01_RfidSim.reader[59].nic  ReaderSendAcknowledgement  ETV
vector 793  _01_RfidSim.tag[53].nic  TagReceivedAcknowledgement  ETV