version 2
run Experiment18_9staticReaders_289TagsGrid-0-20150406-10:24:05-15144
attr configname Experiment18_9staticReaders_289TagsGrid
attr datetime 20150406-10:24:05
attr experiment Experiment18_9staticReaders_289TagsGrid
attr inifile omnetpp.ini
attr iterationvars ""
attr iterationvars2 $repetition=0
attr measurement ""
attr network _01_RfidSim
attr processid 15144
attr repetition 0
attr replication #0
attr resultdir results
attr runnumber 0
attr seedset 0

vector 1490  _01_RfidSim.reader[0].nic.phy  RadioState  ETV
vector 1491  _01_RfidSim.reader[0].nic.phy  RadioChannel  ETV
vector 1492  _01_RfidSim.reader[1].nic.phy  RadioState  ETV
vector 1493  _01_RfidSim.reader[1].nic.phy  RadioChannel  ETV
vector 1494  _01_RfidSim.reader[2].nic.phy  RadioState  ETV
vector 1495  _01_RfidSim.reader[2].nic.phy  RadioChannel  ETV
vector 1496  _01_RfidSim.reader[3].nic.phy  RadioState  ETV
vector 1497  _01_RfidSim.reader[3].nic.phy  RadioChannel  ETV
vector 1498  _01_RfidSim.reader[4].nic.phy  RadioState  ETV
vector 1499  _01_RfidSim.reader[4].nic.phy  RadioChannel  ETV
vector 1500  _01_RfidSim.reader[5].nic.phy  RadioState  ETV
vector 1501  _01_RfidSim.reader[5].nic.phy  RadioChannel  ETV
vector 1502  _01_RfidSim.reader[6].nic.phy  RadioState  ETV
vector 1503  _01_RfidSim.reader[6].nic.phy  RadioChannel  ETV
vector 1504  _01_RfidSim.reader[7].nic.phy  RadioState  ETV
vector 1505  _01_RfidSim.reader[7].nic.phy  RadioChannel  ETV
vector 1506  _01_RfidSim.reader[8].nic.phy  RadioState  ETV
vector 1507  _01_RfidSim.reader[8].nic.phy  RadioChannel  ETV
vector 1227  _01_RfidSim.tag[223].nic  TagReceivedQuery  ETV
vector 1231  _01_RfidSim.tag[224].nic  TagReceivedQuery  ETV
vector 1291  _01_RfidSim.tag[239].nic  TagReceivedQuery  ETV
vector 1295  _01_RfidSim.tag[240].nic  TagReceivedQuery  ETV
vector 1299  _01_RfidSim.tag[241].nic  TagReceivedQuery  ETV
vector 1303  _01_RfidSim.tag[242].nic  TagReceivedQuery  ETV
vector 1359  _01_RfidSim.tag[256].nic  TagReceivedQuery  ETV
vector 1363  _01_RfidSim.tag[257].nic  TagReceivedQuery  ETV
vector 1367  _01_RfidSim.tag[258].nic  TagReceivedQuery  ETV
vector 1371  _01_RfidSim.tag[259].nic  TagReceivedQuery  ETV
vector 1427  _01_RfidSim.tag[273].nic  TagReceivedQuery  ETV
vector 1431  _01_RfidSim.tag[274].nic  TagReceivedQuery  ETV
vector 1435  _01_RfidSim.tag[275].nic  TagReceivedQuery  ETV
vector 1439  _01_RfidSim.tag[276].nic  TagReceivedQuery  ETV
vector 363  _01_RfidSim.tag[7].nic  TagReceivedQuery  ETV
vector 367  _01_RfidSim.tag[8].nic  TagReceivedQuery  ETV
vector 371  _01_RfidSim.tag[9].nic  TagReceivedQuery  ETV
vector 431  _01_RfidSim.tag[24].nic  TagReceivedQuery  ETV
vector 435  _01_RfidSim.tag[25].nic  TagReceivedQuery  ETV
vector 439  _01_RfidSim.tag[26].nic  TagReceivedQuery  ETV
vector 499  _01_RfidSim.tag[41].nic  TagReceivedQuery  ETV
vector 503  _01_RfidSim.tag[42].nic  TagReceivedQuery  ETV
vector 507  _01_RfidSim.tag[43].nic  TagReceivedQuery  ETV
vector 567  _01_RfidSim.tag[58].nic  TagReceivedQuery  ETV
vector 571  _01_RfidSim.tag[59].nic  TagReceivedQuery  ETV
vector 575  _01_RfidSim.tag[60].nic  TagReceivedQuery  ETV
vector 727  _01_RfidSim.tag[98].nic  TagReceivedQuery  ETV
vector 731  _01_RfidSim.tag[99].nic  TagReceivedQuery  ETV
vector 791  _01_RfidSim.tag[114].nic  TagReceivedQuery  ETV
vector 795  _01_RfidSim.tag[115].nic  TagReceivedQuery  ETV
vector 799  _01_RfidSim.tag[116].nic  TagReceivedQuery  ETV
vector 803  _01_RfidSim.tag[117].nic  TagReceivedQuery  ETV
vector 859  _01_RfidSim.tag[131].nic  TagReceivedQuery  ETV
vector 863  _01_RfidSim.tag[132].nic  TagReceivedQuery  ETV
vector 867  _01_RfidSim.tag[133].nic  TagReceivedQuery  ETV
vector 871  _01_RfidSim.tag[134].nic  TagReceivedQuery  ETV
vector 927  _01_RfidSim.tag[148].nic  TagReceivedQuery  ETV
vector 931  _01_RfidSim.tag[149].nic  TagReceivedQuery  ETV
vector 935  _01_RfidSim.tag[150].nic  TagReceivedQuery  ETV
vector 939  _01_RfidSim.tag[151].nic  TagReceivedQuery  ETV
vector 995  _01_RfidSim.tag[165].nic  TagReceivedQuery  ETV
vector 999  _01_RfidSim.tag[166].nic  TagReceivedQuery  ETV
vector 1003  _01_RfidSim.tag[167].nic  TagReceivedQuery  ETV
vector 1007  _01_RfidSim.tag[168].nic  TagReceivedQuery  ETV
vector 1063  _01_RfidSim.tag[182].nic  TagReceivedQuery  ETV
vector 1067  _01_RfidSim.tag[183].nic  TagReceivedQuery  ETV
vector 1071  _01_RfidSim.tag[184].nic  TagReceivedQuery  ETV
vector 1075  _01_RfidSim.tag[185].nic  TagReceivedQuery  ETV
vector 1135  _01_RfidSim.tag[200].nic  TagReceivedQuery  ETV
vector 1139  _01_RfidSim.tag[201].nic  TagReceivedQuery  ETV
vector 339  _01_RfidSim.tag[1].nic  TagReceivedQuery  ETV
vector 343  _01_RfidSim.tag[2].nic  TagReceivedQuery  ETV
vector 347  _01_RfidSim.tag[3].nic  TagReceivedQuery  ETV
vector 351  _01_RfidSim.tag[4].nic  TagReceivedQuery  ETV
vector 407  _01_RfidSim.tag[18].nic  TagReceivedQuery  ETV
vector 411  _01_RfidSim.tag[19].nic  TagReceivedQuery  ETV
vector 415  _01_RfidSim.tag[20].nic  TagReceivedQuery  ETV
vector 419  _01_RfidSim.tag[21].nic  TagReceivedQuery  ETV
vector 475  _01_RfidSim.tag[35].nic  TagReceivedQuery  ETV
vector 479  _01_RfidSim.tag[36].nic  TagReceivedQuery  ETV
vector 483  _01_RfidSim.tag[37].nic  TagReceivedQuery  ETV
vector 487  _01_RfidSim.tag[38].nic  TagReceivedQuery  ETV
vector 547  _01_RfidSim.tag[53].nic  TagReceivedQuery  ETV
vector 551  _01_RfidSim.tag[54].nic  TagReceivedQuery  ETV
vector 1247  _01_RfidSim.tag[228].nic  TagReceivedQuery  ETV
vector 1251  _01_RfidSim.tag[229].nic  TagReceivedQuery  ETV
vector 1255  _01_RfidSim.tag[230].nic  TagReceivedQuery  ETV
vector 1315  _01_RfidSim.tag[245].nic  TagReceivedQuery  ETV
vector 1319  _01_RfidSim.tag[246].nic  TagReceivedQuery  ETV
vector 1323  _01_RfidSim.tag[247].nic  TagReceivedQuery  ETV
vector 1383  _01_RfidSim.tag[262].nic  TagReceivedQuery  ETV
vector 1387  _01_RfidSim.tag[263].nic  TagReceivedQuery  ETV
vector 1391  _01_RfidSim.tag[264].nic  TagReceivedQuery  ETV
vector 1451  _01_RfidSim.tag[279].nic  TagReceivedQuery  ETV
vector 1455  _01_RfidSim.tag[280].nic  TagReceivedQuery  ETV
vector 1459  _01_RfidSim.tag[281].nic  TagReceivedQuery  ETV
vector 324  _01_RfidSim.reader[6].nic  ReaderSendAcknowledgement  ETV
vector 320  _01_RfidSim.reader[5].nic  ReaderSendAcknowledgement  ETV
vector 1358  _01_RfidSim.tag[256].nic  TagReceivedAcknowledgement  ETV
vector 300  _01_RfidSim.reader[0].nic  ReaderSendAcknowledgement  ETV
vector 1134  _01_RfidSim.tag[200].nic  TagReceivedAcknowledgement  ETV
vector 546  _01_RfidSim.tag[53].nic  TagReceivedAcknowledgement  ETV
vector 304  _01_RfidSim.reader[1].nic  ReaderSendAcknowledgement  ETV
vector 1271  _01_RfidSim.tag[234].nic  TagReceivedQuery  ETV
vector 1275  _01_RfidSim.tag[235].nic  TagReceivedQuery  ETV
vector 1335  _01_RfidSim.tag[250].nic  TagReceivedQuery  ETV
vector 1339  _01_RfidSim.tag[251].nic  TagReceivedQuery  ETV
vector 1343  _01_RfidSim.tag[252].nic  TagReceivedQuery  ETV
vector 1347  _01_RfidSim.tag[253].nic  TagReceivedQuery  ETV
vector 1403  _01_RfidSim.tag[267].nic  TagReceivedQuery  ETV
vector 1407  _01_RfidSim.tag[268].nic  TagReceivedQuery  ETV
vector 1411  _01_RfidSim.tag[269].nic  TagReceivedQuery  ETV
vector 1415  _01_RfidSim.tag[270].nic  TagReceivedQuery  ETV
vector 1471  _01_RfidSim.tag[284].nic  TagReceivedQuery  ETV
vector 1475  _01_RfidSim.tag[285].nic  TagReceivedQuery  ETV
vector 1479  _01_RfidSim.tag[286].nic  TagReceivedQuery  ETV
vector 1483  _01_RfidSim.tag[287].nic  TagReceivedQuery  ETV
vector 502  _01_RfidSim.tag[42].nic  TagReceivedAcknowledgement  ETV
vector 328  _01_RfidSim.reader[7].nic  ReaderSendAcknowledgement  ETV
vector 683  _01_RfidSim.tag[87].nic  TagReceivedQuery  ETV
vector 687  _01_RfidSim.tag[88].nic  TagReceivedQuery  ETV
vector 747  _01_RfidSim.tag[103].nic  TagReceivedQuery  ETV
vector 751  _01_RfidSim.tag[104].nic  TagReceivedQuery  ETV
vector 755  _01_RfidSim.tag[105].nic  TagReceivedQuery  ETV
vector 759  _01_RfidSim.tag[106].nic  TagReceivedQuery  ETV
vector 815  _01_RfidSim.tag[120].nic  TagReceivedQuery  ETV
vector 819  _01_RfidSim.tag[121].nic  TagReceivedQuery  ETV
vector 823  _01_RfidSim.tag[122].nic  TagReceivedQuery  ETV
vector 827  _01_RfidSim.tag[123].nic  TagReceivedQuery  ETV
vector 883  _01_RfidSim.tag[137].nic  TagReceivedQuery  ETV
vector 887  _01_RfidSim.tag[138].nic  TagReceivedQuery  ETV
vector 891  _01_RfidSim.tag[139].nic  TagReceivedQuery  ETV
vector 895  _01_RfidSim.tag[140].nic  TagReceivedQuery  ETV
vector 951  _01_RfidSim.tag[154].nic  TagReceivedQuery  ETV
vector 955  _01_RfidSim.tag[155].nic  TagReceivedQuery  ETV
vector 959  _01_RfidSim.tag[156].nic  TagReceivedQuery  ETV
vector 963  _01_RfidSim.tag[157].nic  TagReceivedQuery  ETV
vector 1019  _01_RfidSim.tag[171].nic  TagReceivedQuery  ETV
vector 1023  _01_RfidSim.tag[172].nic  TagReceivedQuery  ETV
vector 1027  _01_RfidSim.tag[173].nic  TagReceivedQuery  ETV
vector 1031  _01_RfidSim.tag[174].nic  TagReceivedQuery  ETV
vector 1091  _01_RfidSim.tag[189].nic  TagReceivedQuery  ETV
vector 1095  _01_RfidSim.tag[190].nic  TagReceivedQuery  ETV
vector 1382  _01_RfidSim.tag[262].nic  TagReceivedAcknowledgement  ETV
vector 730  _01_RfidSim.tag[99].nic  TagReceivedAcknowledgement  ETV
vector 574  _01_RfidSim.tag[60].nic  TagReceivedAcknowledgement  ETV
vector 383  _01_RfidSim.tag[12].nic  TagReceivedQuery  ETV
vector 387  _01_RfidSim.tag[13].nic  TagReceivedQuery  ETV
vector 391  _01_RfidSim.tag[14].nic  TagReceivedQuery  ETV
vector 395  _01_RfidSim.tag[15].nic  TagReceivedQuery  ETV
vector 451  _01_RfidSim.tag[29].nic  TagReceivedQuery  ETV
vector 455  _01_RfidSim.tag[30].nic  TagReceivedQuery  ETV
vector 459  _01_RfidSim.tag[31].nic  TagReceivedQuery  ETV
vector 463  _01_RfidSim.tag[32].nic  TagReceivedQuery  ETV
vector 519  _01_RfidSim.tag[46].nic  TagReceivedQuery  ETV
vector 523  _01_RfidSim.tag[47].nic  TagReceivedQuery  ETV
vector 527  _01_RfidSim.tag[48].nic  TagReceivedQuery  ETV
vector 531  _01_RfidSim.tag[49].nic  TagReceivedQuery  ETV
vector 591  _01_RfidSim.tag[64].nic  TagReceivedQuery  ETV
vector 595  _01_RfidSim.tag[65].nic  TagReceivedQuery  ETV
vector 550  _01_RfidSim.tag[54].nic  TagReceivedAcknowledgement  ETV
vector 1318  _01_RfidSim.tag[246].nic  TagReceivedAcknowledgement  ETV
vector 1290  _01_RfidSim.tag[239].nic  TagReceivedAcknowledgement  ETV
vector 362  _01_RfidSim.tag[7].nic  TagReceivedAcknowledgement  ETV
vector 1250  _01_RfidSim.tag[229].nic  TagReceivedAcknowledgement  ETV
vector 342  _01_RfidSim.tag[2].nic  TagReceivedAcknowledgement  ETV
vector 332  _01_RfidSim.reader[8].nic  ReaderSendAcknowledgement  ETV
vector 1478  _01_RfidSim.tag[286].nic  TagReceivedAcknowledgement  ETV
vector 366  _01_RfidSim.tag[8].nic  TagReceivedAcknowledgement  ETV
vector 312  _01_RfidSim.reader[3].nic  ReaderSendAcknowledgement  ETV
vector 1450  _01_RfidSim.tag[279].nic  TagReceivedAcknowledgement  ETV
vector 826  _01_RfidSim.tag[123].nic  TagReceivedAcknowledgement  ETV
vector 1482  _01_RfidSim.tag[287].nic  TagReceivedAcknowledgement  ETV
vector 370  _01_RfidSim.tag[9].nic  TagReceivedAcknowledgement  ETV
vector 1390  _01_RfidSim.tag[264].nic  TagReceivedAcknowledgement  ETV
vector 338  _01_RfidSim.tag[1].nic  TagReceivedAcknowledgement  ETV
vector 308  _01_RfidSim.reader[2].nic  ReaderSendAcknowledgement  ETV
vector 1346  _01_RfidSim.tag[253].nic  TagReceivedAcknowledgement  ETV
vector 394  _01_RfidSim.tag[15].nic  TagReceivedAcknowledgement  ETV
vector 506  _01_RfidSim.tag[43].nic  TagReceivedAcknowledgement  ETV
vector 1458  _01_RfidSim.tag[281].nic  TagReceivedAcknowledgement  ETV
vector 478  _01_RfidSim.tag[36].nic  TagReceivedAcknowledgement  ETV
vector 1342  _01_RfidSim.tag[252].nic  TagReceivedAcknowledgement  ETV
vector 386  _01_RfidSim.tag[13].nic  TagReceivedAcknowledgement  ETV
vector 566  _01_RfidSim.tag[58].nic  TagReceivedAcknowledgement  ETV
vector 1322  _01_RfidSim.tag[247].nic  TagReceivedAcknowledgement  ETV
vector 434  _01_RfidSim.tag[25].nic  TagReceivedAcknowledgement  ETV
vector 458  _01_RfidSim.tag[31].nic  TagReceivedAcknowledgement  ETV
vector 526  _01_RfidSim.tag[48].nic  TagReceivedAcknowledgement  ETV
vector 570  _01_RfidSim.tag[59].nic  TagReceivedAcknowledgement  ETV
vector 1254  _01_RfidSim.tag[230].nic  TagReceivedAcknowledgement  ETV
vector 954  _01_RfidSim.tag[155].nic  TagReceivedAcknowledgement  ETV
vector 522  _01_RfidSim.tag[47].nic  TagReceivedAcknowledgement  ETV
vector 430  _01_RfidSim.tag[24].nic  TagReceivedAcknowledgement  ETV
vector 454  _01_RfidSim.tag[30].nic  TagReceivedAcknowledgement  ETV
vector 1246  _01_RfidSim.tag[228].nic  TagReceivedAcknowledgement  ETV
vector 1410  _01_RfidSim.tag[269].nic  TagReceivedAcknowledgement  ETV
vector 703  _01_RfidSim.tag[92].nic  TagReceivedQuery  ETV
vector 707  _01_RfidSim.tag[93].nic  TagReceivedQuery  ETV
vector 711  _01_RfidSim.tag[94].nic  TagReceivedQuery  ETV
vector 771  _01_RfidSim.tag[109].nic  TagReceivedQuery  ETV
vector 775  _01_RfidSim.tag[110].nic  TagReceivedQuery  ETV
vector 779  _01_RfidSim.tag[111].nic  TagReceivedQuery  ETV
vector 839  _01_RfidSim.tag[126].nic  TagReceivedQuery  ETV
vector 843  _01_RfidSim.tag[127].nic  TagReceivedQuery  ETV
vector 847  _01_RfidSim.tag[128].nic  TagReceivedQuery  ETV
vector 907  _01_RfidSim.tag[143].nic  TagReceivedQuery  ETV
vector 911  _01_RfidSim.tag[144].nic  TagReceivedQuery  ETV
vector 915  _01_RfidSim.tag[145].nic  TagReceivedQuery  ETV
vector 975  _01_RfidSim.tag[160].nic  TagReceivedQuery  ETV
vector 979  _01_RfidSim.tag[161].nic  TagReceivedQuery  ETV
vector 983  _01_RfidSim.tag[162].nic  TagReceivedQuery  ETV
vector 1043  _01_RfidSim.tag[177].nic  TagReceivedQuery  ETV
vector 1047  _01_RfidSim.tag[178].nic  TagReceivedQuery  ETV
vector 1051  _01_RfidSim.tag[179].nic  TagReceivedQuery  ETV
vector 1111  _01_RfidSim.tag[194].nic  TagReceivedQuery  ETV
vector 1115  _01_RfidSim.tag[195].nic  TagReceivedQuery  ETV
vector 1119  _01_RfidSim.tag[196].nic  TagReceivedQuery  ETV
vector 590  _01_RfidSim.tag[64].nic  TagReceivedAcknowledgement  ETV
vector 1426  _01_RfidSim.tag[273].nic  TagReceivedAcknowledgement  ETV
vector 1314  _01_RfidSim.tag[245].nic  TagReceivedAcknowledgement  ETV
vector 1406  _01_RfidSim.tag[268].nic  TagReceivedAcknowledgement  ETV
vector 1226  _01_RfidSim.tag[223].nic  TagReceivedAcknowledgement  ETV
vector 482  _01_RfidSim.tag[37].nic  TagReceivedAcknowledgement  ETV
vector 462  _01_RfidSim.tag[32].nic  TagReceivedAcknowledgement  ETV
vector 316  _01_RfidSim.reader[4].nic  ReaderSendAcknowledgement  ETV
vector 1110  _01_RfidSim.tag[194].nic  TagReceivedAcknowledgement  ETV
vector 1470  _01_RfidSim.tag[284].nic  TagReceivedAcknowledgement  ETV
vector 382  _01_RfidSim.tag[12].nic  TagReceivedAcknowledgement  ETV
vector 974  _01_RfidSim.tag[160].nic  TagReceivedAcknowledgement  ETV
vector 1274  _01_RfidSim.tag[235].nic  TagReceivedAcknowledgement  ETV
vector 450  _01_RfidSim.tag[29].nic  TagReceivedAcknowledgement  ETV
vector 410  _01_RfidSim.tag[19].nic  TagReceivedAcknowledgement  ETV
vector 910  _01_RfidSim.tag[144].nic  TagReceivedAcknowledgement  ETV
vector 1414  _01_RfidSim.tag[270].nic  TagReceivedAcknowledgement  ETV
vector 390  _01_RfidSim.tag[14].nic  TagReceivedAcknowledgement  ETV
vector 346  _01_RfidSim.tag[3].nic  TagReceivedAcknowledgement  ETV
vector 706  _01_RfidSim.tag[93].nic  TagReceivedAcknowledgement  ETV
vector 1338  _01_RfidSim.tag[251].nic  TagReceivedAcknowledgement  ETV
vector 474  _01_RfidSim.tag[35].nic  TagReceivedAcknowledgement  ETV
vector 498  _01_RfidSim.tag[41].nic  TagReceivedAcknowledgement  ETV
vector 1230  _01_RfidSim.tag[224].nic  TagReceivedAcknowledgement  ETV
vector 530  _01_RfidSim.tag[49].nic  TagReceivedAcknowledgement  ETV
vector 406  _01_RfidSim.tag[18].nic  TagReceivedAcknowledgement  ETV
vector 1386  _01_RfidSim.tag[263].nic  TagReceivedAcknowledgement  ETV
vector 1270  _01_RfidSim.tag[234].nic  TagReceivedAcknowledgement  ETV
vector 350  _01_RfidSim.tag[4].nic  TagReceivedAcknowledgement  ETV
vector 518  _01_RfidSim.tag[46].nic  TagReceivedAcknowledgement  ETV
vector 1114  _01_RfidSim.tag[195].nic  TagReceivedAcknowledgement  ETV
vector 1370  _01_RfidSim.tag[259].nic  TagReceivedAcknowledgement  ETV
vector 486  _01_RfidSim.tag[38].nic  TagReceivedAcknowledgement  ETV
vector 842  _01_RfidSim.tag[127].nic  TagReceivedAcknowledgement  ETV
vector 1066  _01_RfidSim.tag[183].nic  TagReceivedAcknowledgement  ETV
vector 1294  _01_RfidSim.tag[240].nic  TagReceivedAcknowledgement  ETV
vector 414  _01_RfidSim.tag[20].nic  TagReceivedAcknowledgement  ETV
vector 866  _01_RfidSim.tag[133].nic  TagReceivedAcknowledgement  ETV
vector 418  _01_RfidSim.tag[21].nic  TagReceivedAcknowledgement  ETV
vector 1046  _01_RfidSim.tag[178].nic  TagReceivedAcknowledgement  ETV
vector 998  _01_RfidSim.tag[166].nic  TagReceivedAcknowledgement  ETV
vector 1302  _01_RfidSim.tag[242].nic  TagReceivedAcknowledgement  ETV
vector 702  _01_RfidSim.tag[92].nic  TagReceivedAcknowledgement  ETV
vector 930  _01_RfidSim.tag[149].nic  TagReceivedAcknowledgement  ETV
vector 1298  _01_RfidSim.tag[241].nic  TagReceivedAcknowledgement  ETV
vector 770  _01_RfidSim.tag[109].nic  TagReceivedAcknowledgement  ETV
vector 870  _01_RfidSim.tag[134].nic  TagReceivedAcknowledgement  ETV
vector 838  _01_RfidSim.tag[126].nic  TagReceivedAcknowledgement  ETV
vector 1070  _01_RfidSim.tag[184].nic  TagReceivedAcknowledgement  ETV
vector 950  _01_RfidSim.tag[154].nic  TagReceivedAcknowledgement  ETV
vector 710  _01_RfidSim.tag[94].nic  TagReceivedAcknowledgement  ETV
vector 1006  _01_RfidSim.tag[168].nic  TagReceivedAcknowledgement  ETV
vector 438  _01_RfidSim.tag[26].nic  TagReceivedAcknowledgement  ETV
vector 994  _01_RfidSim.tag[165].nic  TagReceivedAcknowledgement  ETV
vector 1362  _01_RfidSim.tag[257].nic  TagReceivedAcknowledgement  ETV
vector 778  _01_RfidSim.tag[111].nic  TagReceivedAcknowledgement  ETV
vector 1002  _01_RfidSim.tag[167].nic  TagReceivedAcknowledgement  ETV
vector 1434  _01_RfidSim.tag[275].nic  TagReceivedAcknowledgement  ETV
vector 1050  _01_RfidSim.tag[179].nic  TagReceivedAcknowledgement  ETV
vector 802  _01_RfidSim.tag[117].nic  TagReceivedAcknowledgement  ETV
vector 750  _01_RfidSim.tag[104].nic  TagReceivedAcknowledgement  ETV
vector 914  _01_RfidSim.tag[145].nic  TagReceivedAcknowledgement  ETV
vector 594  _01_RfidSim.tag[65].nic  TagReceivedAcknowledgement  ETV
vector 882  _01_RfidSim.tag[137].nic  TagReceivedAcknowledgement  ETV
vector 846  _01_RfidSim.tag[128].nic  TagReceivedAcknowledgement  ETV
vector 798  _01_RfidSim.tag[116].nic  TagReceivedAcknowledgement  ETV
vector 886  _01_RfidSim.tag[138].nic  TagReceivedAcknowledgement  ETV
vector 982  _01_RfidSim.tag[162].nic  TagReceivedAcknowledgement  ETV
vector 934  _01_RfidSim.tag[150].nic  TagReceivedAcknowledgement  ETV
vector 818  _01_RfidSim.tag[121].nic  TagReceivedAcknowledgement  ETV
vector 790  _01_RfidSim.tag[114].nic  TagReceivedAcknowledgement  ETV
vector 1438  _01_RfidSim.tag[276].nic  TagReceivedAcknowledgement  ETV
vector 794  _01_RfidSim.tag[115].nic  TagReceivedAcknowledgement  ETV
vector 978  _01_RfidSim.tag[161].nic  TagReceivedAcknowledgement  ETV
vector 726  _01_RfidSim.tag[98].nic  TagReceivedAcknowledgement  ETV
vector 1366  _01_RfidSim.tag[258].nic  TagReceivedAcknowledgement  ETV
vector 1118  _01_RfidSim.tag[196].nic  TagReceivedAcknowledgement  ETV
vector 814  _01_RfidSim.tag[120].nic  TagReceivedAcknowledgement  ETV
vector 862  _01_RfidSim.tag[132].nic  TagReceivedAcknowledgement  ETV
vector 1090  _01_RfidSim.tag[189].nic  TagReceivedAcknowledgement  ETV
vector 1062  _01_RfidSim.tag[182].nic  TagReceivedAcknowledgement  ETV
vector 1334  _01_RfidSim.tag[250].nic  TagReceivedAcknowledgement  ETV
vector 1042  _01_RfidSim.tag[177].nic  TagReceivedAcknowledgement  ETV
vector 1474  _01_RfidSim.tag[285].nic  TagReceivedAcknowledgement  ETV
vector 1018  _01_RfidSim.tag[171].nic  TagReceivedAcknowledgement  ETV
vector 774  _01_RfidSim.tag[110].nic  TagReceivedAcknowledgement  ETV
vector 958  _01_RfidSim.tag[156].nic  TagReceivedAcknowledgement  ETV
vector 1402  _01_RfidSim.tag[267].nic  TagReceivedAcknowledgement  ETV
vector 822  _01_RfidSim.tag[122].nic  TagReceivedAcknowledgement  ETV
vector 682  _01_RfidSim.tag[87].nic  TagReceivedAcknowledgement  ETV
vector 758  _01_RfidSim.tag[106].nic  TagReceivedAcknowledgement  ETV
vector 962  _01_RfidSim.tag[157].nic  TagReceivedAcknowledgement  ETV
vector 894  _01_RfidSim.tag[140].nic  TagReceivedAcknowledgement  ETV
vector 1022  _01_RfidSim.tag[172].nic  TagReceivedAcknowledgement  ETV
vector 1030  _01_RfidSim.tag[174].nic  TagReceivedAcknowledgement  ETV
vector 746  _01_RfidSim.tag[103].nic  TagReceivedAcknowledgement  ETV
vector 1094  _01_RfidSim.tag[190].nic  TagReceivedAcknowledgement  ETV
vector 1026  _01_RfidSim.tag[173].nic  TagReceivedAcknowledgement  ETV
vector 890  _01_RfidSim.tag[139].nic  TagReceivedAcknowledgement  ETV
vector 754  _01_RfidSim.tag[105].nic  TagReceivedAcknowledgement  ETV
300	4738	0.002713046263	309
300	9155	0.004773046263	309
300	13714	0.006893046263	309
300	21687	0.010243914747	309
300	25504	0.011772974795	309
300	49572	0.023320601983	309
300	58174	0.026780601983	309
300	61305	0.028320601983	309
300	64896	0.029860601983	309
300	68563	0.031880601983	309
300	72048	0.033440601983	309
300	75463	0.035000601983	309
300	79127	0.036680601983	309
300	82653	0.038320601983	309
304	5453	0.003023769806	316
304	8866	0.004603769806	316
304	12085	0.006183769806	316
304	15774	0.007803769806	316
304	19558	0.009403769806	316
304	23279	0.010963769806	316
304	27206	0.012523769806	316
304	31354	0.014183769806	316
304	35001	0.015823769806	316
304	38623	0.017443769806	316
304	65509	0.03022923465	316
304	97926	0.04620523465	316
308	22854	0.010943579491	323
308	26799	0.012463579491	323
308	31514	0.014203579491	323
308	34590	0.015743579491	323
308	38191	0.017363579491	323
308	41287	0.019003579491	323
308	44256	0.020623579491	323
308	49855	0.023363579491	323
308	53884	0.024963579491	323
308	57620	0.026583579491	323
308	61160	0.028223579491	323
308	67912	0.031523579491	323
308	72482	0.033543579491	323
308	108550	0.05177541881	323
312	17463	0.008522988916	330
312	37588	0.017024600983	330
312	94267	0.044232603983	330
312	105994	0.050388604983	330
312	109051	0.051928604983	330
312	112049	0.053568604983	330
312	115251	0.055128604983	330
312	126069	0.061100606983	330
312	128854	0.062660606983	330
312	133919	0.066620606983	330
312	136104	0.068260606983	330
312	137441	0.069820606983	330
312	138695	0.071800606983	330
312	139783	0.073420606983	330
312	140884	0.075020606983	330
312	141990	0.076560606983	330
312	142984	0.078280606983	330
312	144055	0.079920606983	330
312	144986	0.081480606983	330
312	145991	0.083200606983	330
312	147025	0.085260606983	330
312	148092	0.087300606983	330
312	149114	0.091100606983	330
316	51292	0.023897325898	337
316	54979	0.025497325898	337
316	58751	0.027177325898	337
316	61930	0.02870923465	337
316	73410	0.03398923465	337
316	76857	0.03554923465	337
316	82712	0.03832523465	337
316	85839	0.04004523465	337
316	88710	0.04160523465	337
316	91798	0.04314523465	337
316	95192	0.04468523465	337
316	101798	0.04840523465	337
316	105190	0.04996523465	337
316	108314	0.05152523465	337
316	111117	0.05306523465	337
316	114554	0.05476523465	337
316	120906	0.05836523465	337
316	123870	0.05994523465	337
316	131798	0.06496523465	337
316	134748	0.06712523465	337
320	4079	0.002490689867	344
320	7870	0.004190689867	344
320	77775	0.03599541881	344
320	81196	0.03755541881	344
320	84010	0.03911541881	344
320	86930	0.04069541881	344
320	89973	0.04225541881	344
320	93608	0.04389541881	344
320	96719	0.04543541881	344
320	99199	0.04697541881	344
320	102058	0.04865541881	344
320	105428	0.05025541881	344
320	111612	0.05333541881	344
320	114819	0.05491541881	344
320	117829	0.05661541881	344
320	120644	0.05815541881	344
320	123376	0.05971541881	344
320	126590	0.06125541881	344
320	129114	0.06283541881	344
324	3879	0.002299483981	351
324	11936	0.006094989169	351
324	44782	0.020880601983	351
324	48093	0.022560601983	351
324	65725	0.030356602983	351
324	75287	0.034872603983	351
324	78969	0.036432603983	351
324	85170	0.039612603983	351
324	88050	0.041192603983	351
324	99400	0.047188604983	351
324	102446	0.048728604983	351
324	119046	0.057204605983	351
324	123582	0.059924605983	351
328	6411	0.003465324898	358
328	9785	0.005025324898	358
328	13433	0.006745324898	358
328	16987	0.008325324898	358
328	20883	0.009905324898	358
328	24640	0.011445324898	358
328	30459	0.013781325898	358
328	35946	0.016277325898	358
328	42704	0.019797325898	358
328	47431	0.022377325898	358
328	69041	0.03216923465	358
332	15008	0.00745141681	365
332	18861	0.00909141681	365
332	22578	0.01069141681	365
332	26630	0.01223141681	365
332	43041	0.01983941881	365
332	47625	0.02249541881	365
332	51828	0.02413541881	365
332	55516	0.02569541881	365
332	58957	0.02723541881	365
332	62251	0.02885541881	365
332	69960	0.03255541881	365
332	131102	0.06435541881	365
332	133144	0.06599541881	365
332	136317	0.06845541881	365
338	22166	0.010547914747	379
339	1917	0.001064	379
342	14502	0.007197046263	386
343	1921	0.001064	386
346	61645	0.028624601983	393
347	1925	0.001064	393
350	72779	0.033744601983	400
351	1929	0.001064	400
362	12796	0.006487769806	421
363	1609	0.000944	421
366	16369	0.008107769806	428
367	1613	0.000944	428
370	20207	0.009707769806	435
371	1617	0.000944	435
382	54664	0.025267579491	456
383	9690	0.005024689867	456
386	27652	0.012767579491	463
387	9694	0.005024689867	463
390	61550	0.028527579491	470
391	9698	0.005024689867	470
394	23804	0.011247579491	477
395	9702	0.005024689867	477
406	69149	0.032184601983	498
407	1936	0.001064	498
410	58458	0.027084601983	505
411	1940	0.001064	505
414	79795	0.036984601983	512
415	1944	0.001064	512
418	83111	0.038624601983	519
419	1948	0.001064	519
430	39261	0.017747769806	540
431	1627	0.000944	540
434	31858	0.014487769806	547
435	1631	0.000944	547
438	98703	0.04650923465	554
439	1635	0.000944	554
450	58276	0.026887579491	575
451	9709	0.005024689867	575
454	42065	0.019307579491	582
455	9713	0.005024689867	582
458	31976	0.014507579491	589
459	9717	0.005024689867	589
462	50551	0.023667579491	596
463	9721	0.005024689867	596
474	65346	0.030164601983	617
475	1955	0.001064	617
478	26107	0.012076974795	624
479	1959	0.001064	624
482	50312	0.023624601983	631
483	1963	0.001064	631
486	76301	0.035304601983	638
487	1967	0.001064	638
498	66052	0.03053323465	659
499	1645	0.000944	659
502	5920	0.003327769806	666
503	1649	0.000944	666
506	24019	0.011267769806	673
507	1653	0.000944	673
518	73029	0.033847579491	694
519	9728	0.005024689867	694
522	38764	0.017667579491	701
523	9732	0.005024689867	701
526	35323	0.016047579491	708
527	9736	0.005024689867	708
530	68444	0.031827579491	715
531	9740	0.005024689867	715
546	5418	0.003017046263	743
547	1975	0.001064	743
550	9928	0.005077046263	750
551	1979	0.001064	750
566	27982	0.012827769806	778
567	1663	0.000944	778
570	35446	0.016127769806	785
571	1667	0.000944	785
574	9305	0.004907769806	792
575	1671	0.000944	792
590	45057	0.020927579491	820
591	9748	0.005024689867	820
594	109250	0.05207941881	827
595	9752	0.005024689867	827
682	138877	0.072104606983	981
683	6520	0.003547046263	981
687	6524	0.003547046263	988
702	86294	0.04034923465	1016
703	44630	0.020871325898	1016
706	62390	0.02901323465	1023
707	44634	0.020871325898	1023
710	95881	0.04498923465	1030
711	44638	0.020871325898	1030
726	124097	0.06001941881	1058
727	1764	0.001004	1058
730	8408	0.004494689867	1065
731	1768	0.001004	1065
746	145174	0.081784606983	1093
747	6532	0.003547046263	1093
750	106528	0.050692604983	1100
751	6536	0.003547046263	1100
754	149305	0.091404606983	1107
755	6540	0.003547046263	1107
758	139983	0.073724606983	1114
759	6544	0.003547046263	1114
770	89397	0.04190923465	1135
771	44648	0.020871325898	1135
774	135038	0.06742923465	1142
775	44652	0.020871325898	1142
778	102258	0.04870923465	1149
779	44656	0.020871325898	1149
790	118344	0.05691941881	1170
791	1776	0.001004	1170
794	121114	0.05845941881	1177
795	1780	0.001004	1177
798	112374	0.05363941881	1184
799	1784	0.001004	1184
802	106197	0.05055941881	1191
803	1788	0.001004	1191
814	126792	0.061404606983	1212
815	6551	0.003547046263	1212
818	115768	0.055432604983	1219
819	6555	0.003547046263	1219
822	137642	0.070124606983	1226
823	6559	0.003547046263	1226
826	18287	0.008826988916	1233
827	6563	0.003547046263	1233
838	92752	0.04344923465	1254
839	44666	0.020871325898	1254
842	77242	0.03585323465	1261
843	44670	0.020871325898	1261
846	111821	0.05336923465	1268
847	44674	0.020871325898	1268
859	1795	0.001004	1289
862	127077	0.06155941881	1296
863	1799	0.001004	1296
866	81894	0.03785941881	1303
867	1803	0.001004	1303
870	90461	0.04255941881	1310
871	1807	0.001004	1310
882	109494	0.052232604983	1331
883	6570	0.003547046263	1331
886	112685	0.053872604983	1338
887	6574	0.003547046263	1338
890	148302	0.087604606983	1345
891	6578	0.003547046263	1345
894	142211	0.076864606983	1352
895	6582	0.003547046263	1352
907	44684	0.020871325898	1373
910	59261	0.027481325898	1380
911	44688	0.020871325898	1380
914	108723	0.05182923465	1387
915	44692	0.020871325898	1387
927	1814	0.001004	1408
930	87500	0.04099941881	1415
931	1818	0.001004	1415
934	115603	0.05521941881	1422
935	1822	0.001004	1422
939	1826	0.001004	1429
950	94676	0.044536603983	1450
951	6589	0.003547046263	1450
954	38022	0.017328600983	1457
955	6593	0.003547046263	1457