version 2
run Experiment8_64staticReaders_81TagsGrid-0-20150406-10:12:18-512
attr configname Experiment8_64staticReaders_81TagsGrid
attr datetime 20150406-10:12:18
attr experiment Experiment8_64staticReaders_81TagsGrid
attr inifile omnetpp.ini
attr iterationvars ""
attr iterationvars2 $repetition=0
attr measurement ""
attr network _01_RfidSim
attr processid 512
attr repetition 0
attr replication #0
attr resultdir results
attr runnumber 0
attr seedset 0

vector 725  _01_RfidSim.reader[0].nic.phy  RadioState  ETV
vector 726  _01_RfidSim.reader[0].nic.phy  RadioChannel  ETV
vector 727  _01_RfidSim.reader[1].nic.phy  RadioState  ETV
vector 728  _01_RfidSim.reader[1].nic.phy  RadioChannel  ETV
vector 729  _01_RfidSim.reader[2].nic.phy  RadioState  ETV
vector 730  _01_RfidSim.reader[2].nic.phy  RadioChannel  ETV
vector 731  _01_RfidSim.reader[3].nic.phy  RadioState  ETV
vector 732  _01_RfidSim.reader[3].nic.phy  RadioChannel  ETV
vector 733  _01_RfidSim.reader[4].nic.phy  RadioState  ETV
vector 734  _01_RfidSim.reader[4].nic.phy  RadioChannel  ETV
vector 735  _01_RfidSim.reader[5].nic.phy  RadioState  ETV
vector 736  _01_RfidSim.reader[5].nic.phy  RadioChannel  ETV
vector 737  _01_RfidSim.reader[6].nic.phy  RadioState  ETV
vector 738  _01_RfidSim.reader[6].nic.phy  RadioChannel  ETV
vector 739  _01_RfidSim.reader[7].nic.phy  RadioState  ETV
vector 740  _01_RfidSim.reader[7].nic.phy  RadioChannel  ETV
vector 741  _01_RfidSim.reader[8].nic.phy  RadioState  ETV
vector 742  _01_RfidSim.reader[8].nic.phy  RadioChannel  ETV
vector 743  _01_RfidSim.reader[9].nic.phy  RadioState  ETV
vector 744  _01_RfidSim.reader[9].nic.phy  RadioChannel  ETV
vector 745  _01_RfidSim.reader[10].nic.phy  RadioState  ETV
vector 746  _01_RfidSim.reader[10].nic.phy  RadioChannel  ETV
vector 747  _01_RfidSim.reader[11].nic.phy  RadioState  ETV
vector 748  _01_RfidSim.reader[11].nic.phy  RadioChannel  ETV
vector 749  _01_RfidSim.reader[12].nic.phy  RadioState  ETV
vector 750  _01_RfidSim.reader[12].nic.phy  RadioChannel  ETV
vector 751  _01_RfidSim.reader[13].nic.phy  RadioState  ETV
vector 752  _01_RfidSim.reader[13].nic.phy  RadioChannel  ETV
vector 753  _01_RfidSim.reader[14].nic.phy  RadioState  ETV
vector 754  _01_RfidSim.reader[14].nic.phy  RadioChannel  ETV
vector 755  _01_RfidSim.reader[15].nic.phy  RadioState  ETV
vector 756  _01_RfidSim.reader[15].nic.phy  RadioChannel  ETV
vector 757  _01_RfidSim.reader[16].nic.phy  RadioState  ETV
vector 758  _01_RfidSim.reader[16].nic.phy  RadioChannel  ETV
vector 759  _01_RfidSim.reader[17].nic.phy  RadioState  ETV
vector 760  _01_RfidSim.reader[17].nic.phy  RadioChannel  ETV
vector 761  _01_RfidSim.reader[18].nic.phy  RadioState  ETV
vector 762  _01_RfidSim.reader[18].nic.phy  RadioChannel  ETV
vector 763  _01_RfidSim.reader[19].nic.phy  RadioState  ETV
vector 764  _01_RfidSim.reader[19].nic.phy  RadioChannel  ETV
vector 765  _01_RfidSim.reader[20].nic.phy  RadioState  ETV
vector 766  _01_RfidSim.reader[20].nic.phy  RadioChannel  ETV
vector 767  _01_RfidSim.reader[21].nic.phy  RadioState  ETV
vector 768  _01_RfidSim.reader[21].nic.phy  RadioChannel  ETV
vector 769  _01_RfidSim.reader[22].nic.phy  RadioState  ETV
vector 770  _01_RfidSim.reader[22].nic.phy  RadioChannel  ETV
vector 771  _01_RfidSim.reader[23].nic.phy  RadioState  ETV
vector 772  _01_RfidSim.reader[23].nic.phy  RadioChannel  ETV
vector 773  _01_RfidSim.reader[24].nic.phy  RadioState  ETV
vector 774  _01_RfidSim.reader[24].nic.phy  RadioChannel  ETV
vector 775  _01_RfidSim.reader[25].nic.phy  RadioState  ETV
vector 776  _01_RfidSim.reader[25].nic.phy  RadioChannel  ETV
vector 777  _01_RfidSim.reader[26].nic.phy  RadioState  ETV
vector 778  _01_RfidSim.reader[26].nic.phy  RadioChannel  ETV
vector 779  _01_RfidSim.reader[27].nic.phy  RadioState  ETV
vector 780  _01_RfidSim.reader[27].nic.phy  RadioChannel  ETV
vector 781  _01_RfidSim.reader[28].nic.phy  RadioState  ETV
vector 782  _01_RfidSim.reader[28].nic.phy  RadioChannel  ETV
vector 783  _01_RfidSim.reader[29].nic.phy  RadioState  ETV
vector 784  _01_RfidSim.reader[29].nic.phy  RadioChannel  ETV
vector 785  _01_RfidSim.reader[30].nic.phy  RadioState  ETV
vector 786  _01_RfidSim.reader[30].nic.phy  RadioChannel  ETV
vector 787  _01_RfidSim.reader[31].nic.phy  RadioState  ETV
vector 788  _01_RfidSim.reader[31].nic.phy  RadioChannel  ETV
vector 789  _01_RfidSim.reader[32].nic.phy  RadioState  ETV
vector 790  _01_RfidSim.reader[32].nic.phy  RadioChannel  ETV
vector 791  _01_RfidSim.reader[33].nic.phy  RadioState  ETV
vector 792  _01_RfidSim.reader[33].nic.phy  RadioChannel  ETV
vector 793  _01_RfidSim.reader[34].nic.phy  RadioState  ETV
vector 794  _01_RfidSim.reader[34].nic.phy  RadioChannel  ETV
vector 795  _01_RfidSim.reader[35].nic.phy  RadioState  ETV
vector 796  _01_RfidSim.reader[35].nic.phy  RadioChannel  ETV
vector 797  _01_RfidSim.reader[36].nic.phy  RadioState  ETV
vector 798  _01_RfidSim.reader[36].nic.phy  RadioChannel  ETV
vector 799  _01_RfidSim.reader[37].nic.phy  RadioState  ETV
vector 800  _01_RfidSim.reader[37].nic.phy  RadioChannel  ETV
vector 801  _01_RfidSim.reader[38].nic.phy  RadioState  ETV
vector 802  _01_RfidSim.reader[38].nic.phy  RadioChannel  ETV
vector 803  _01_RfidSim.reader[39].nic.phy  RadioState  ETV
vector 804  _01_RfidSim.reader[39].nic.phy  RadioChannel  ETV
vector 805  _01_RfidSim.reader[40].nic.phy  RadioState  ETV
vector 806  _01_RfidSim.reader[40].nic.phy  RadioChannel  ETV
vector 807  _01_RfidSim.reader[41].nic.phy  RadioState  ETV
vector 808  _01_RfidSim.reader[41].nic.phy  RadioChannel  ETV
vector 809  _01_RfidSim.reader[42].nic.phy  RadioState  ETV
vector 810  _01_RfidSim.reader[42].nic.phy  RadioChannel  ETV
vector 811  _01_RfidSim.reader[43].nic.phy  RadioState  ETV
vector 812  _01_RfidSim.reader[43].nic.phy  RadioChannel  ETV
vector 813  _01_RfidSim.reader[44].nic.phy  RadioState  ETV
vector 814  _01_RfidSim.reader[44].nic.phy  RadioChannel  ETV
vector 815  _01_RfidSim.reader[45].nic.phy  RadioState  ETV
vector 816  _01_RfidSim.reader[45].nic.phy  RadioChannel  ETV
vector 817  _01_RfidSim.reader[46].nic.phy  RadioState  ETV
vector 818  _01_RfidSim.reader[46].nic.phy  RadioChannel  ETV
vector 819  _01_RfidSim.reader[47].nic.phy  RadioState  ETV
vector 820  _01_RfidSim.reader[47].nic.phy  RadioChannel  ETV
vector 821  _01_RfidSim.reader[48].nic.phy  RadioState  ETV
vector 822  _01_RfidSim.reader[48].nic.phy  RadioChannel  ETV
vector 823  _01_RfidSim.reader[49].nic.phy  RadioState  ETV
vector 824  _01_RfidSim.reader[49].nic.phy  RadioChannel  ETV
vector 825  _01_RfidSim.reader[50].nic.phy  RadioState  ETV
vector 826  _01_RfidSim.reader[50].nic.phy  RadioChannel  ETV
vector 827  _01_RfidSim.reader[51].nic.phy  RadioState  ETV
vector 828  _01_RfidSim.reader[51].nic.phy  RadioChannel  ETV
vector 829  _01_RfidSim.reader[52].nic.phy  RadioState  ETV
vector 830  _01_RfidSim.reader[52].nic.phy  RadioChannel  ETV
vector 831  _01_RfidSim.reader[53].nic.phy  RadioState  ETV
vector 832  _01_RfidSim.reader[53].nic.phy  RadioChannel  ETV
vector 833  _01_RfidSim.reader[54].nic.phy  RadioState  ETV
vector 834  _01_RfidSim.reader[54].nic.phy  RadioChannel  ETV
vector 835  _01_RfidSim.reader[55].nic.phy  RadioState  ETV
vector 836  _01_RfidSim.reader[55].nic.phy  RadioChannel  ETV
vector 837  _01_RfidSim.reader[56].nic.phy  RadioState  ETV
vector 838  _01_RfidSim.reader[56].nic.phy  RadioChannel  ETV
vector 839  _01_RfidSim.reader[57].nic.phy  RadioState  ETV
vector 840  _01_RfidSim.reader[57].nic.phy  RadioChannel  ETV
vector 841  _01_RfidSim.reader[58].nic.phy  RadioState  ETV
vector 842  _01_RfidSim.reader[58].nic.phy  RadioChannel  ETV
vector 843  _01_RfidSim.reader[59].nic.phy  RadioState  ETV
vector 844  _01_RfidSim.reader[59].nic.phy  RadioChannel  ETV
vector 845  _01_RfidSim.reader[60].nic.phy  RadioState  ETV
vector 846  _01_RfidSim.reader[60].nic.phy  RadioChannel  ETV
vector 847  _01_RfidSim.reader[61].nic.phy  RadioState  ETV
vector 848  _01_RfidSim.reader[61].nic.phy  RadioChannel  ETV
vector 849  _01_RfidSim.reader[62].nic.phy  RadioState  ETV
vector 850  _01_RfidSim.reader[62].nic.phy  RadioChannel  ETV
vector 851  _01_RfidSim.reader[63].nic.phy  RadioState  ETV
vector 852  _01_RfidSim.reader[63].nic.phy  RadioChannel  ETV
vector 158  _01_RfidSim.reader[3].nic  TagReceivedQuery  ETV
vector 162  _01_RfidSim.reader[4].nic  TagReceivedQuery  ETV
vector 170  _01_RfidSim.reader[6].nic  TagReceivedQuery  ETV
vector 174  _01_RfidSim.reader[7].nic  TagReceivedQuery  ETV
vector 190  _01_RfidSim.reader[11].nic  TagReceivedQuery  ETV
vector 194  _01_RfidSim.reader[12].nic  TagReceivedQuery  ETV
vector 198  _01_RfidSim.reader[13].nic  TagReceivedQuery  ETV
vector 202  _01_RfidSim.reader[14].nic  TagReceivedQuery  ETV
vector 222  _01_RfidSim.reader[19].nic  TagReceivedQuery  ETV
vector 226  _01_RfidSim.reader[20].nic  TagReceivedQuery  ETV
vector 230  _01_RfidSim.reader[21].nic  TagReceivedQuery  ETV
vector 234  _01_RfidSim.reader[22].nic  TagReceivedQuery  ETV
vector 258  _01_RfidSim.reader[28].nic  TagReceivedQuery  ETV
vector 262  _01_RfidSim.reader[29].nic  TagReceivedQuery  ETV
vector 422  _01_RfidSim.tag[5].nic  TagReceivedQuery  ETV
vector 426  _01_RfidSim.tag[6].nic  TagReceivedQuery  ETV
vector 458  _01_RfidSim.tag[14].nic  TagReceivedQuery  ETV
vector 462  _01_RfidSim.tag[15].nic  TagReceivedQuery  ETV
vector 210  _01_RfidSim.reader[16].nic  TagReceivedQuery  ETV
vector 214  _01_RfidSim.reader[17].nic  TagReceivedQuery  ETV
vector 218  _01_RfidSim.reader[18].nic  TagReceivedQuery  ETV
vector 242  _01_RfidSim.reader[24].nic  TagReceivedQuery  ETV
vector 246  _01_RfidSim.reader[25].nic  TagReceivedQuery  ETV
vector 250  _01_RfidSim.reader[26].nic  TagReceivedQuery  ETV
vector 274  _01_RfidSim.reader[32].nic  TagReceivedQuery  ETV
vector 278  _01_RfidSim.reader[33].nic  TagReceivedQuery  ETV
vector 282  _01_RfidSim.reader[34].nic  TagReceivedQuery  ETV
vector 306  _01_RfidSim.reader[40].nic  TagReceivedQuery  ETV
vector 314  _01_RfidSim.reader[42].nic  TagReceivedQuery  ETV
vector 338  _01_RfidSim.reader[48].nic  TagReceivedQuery  ETV
vector 342  _01_RfidSim.reader[49].nic  TagReceivedQuery  ETV
vector 346  _01_RfidSim.reader[50].nic  TagReceivedQuery  ETV
vector 370  _01_RfidSim.reader[56].nic  TagReceivedQuery  ETV
vector 374  _01_RfidSim.reader[57].nic  TagReceivedQuery  ETV
vector 378  _01_RfidSim.reader[58].nic  TagReceivedQuery  ETV
vector 554  _01_RfidSim.tag[38].nic  TagReceivedQuery  ETV
vector 586  _01_RfidSim.tag[46].nic  TagReceivedQuery  ETV
vector 590  _01_RfidSim.tag[47].nic  TagReceivedQuery  ETV
vector 622  _01_RfidSim.tag[55].nic  TagReceivedQuery  ETV
vector 626  _01_RfidSim.tag[56].nic  TagReceivedQuery  ETV
vector 658  _01_RfidSim.tag[64].nic  TagReceivedQuery  ETV
vector 662  _01_RfidSim.tag[65].nic  TagReceivedQuery  ETV
vector 698  _01_RfidSim.tag[74].nic  TagReceivedQuery  ETV
vector 290  _01_RfidSim.reader[36].nic  TagReceivedQuery  ETV
vector 294  _01_RfidSim.reader[37].nic  TagReceivedQuery  ETV
vector 322  _01_RfidSim.reader[44].nic  TagReceivedQuery  ETV
vector 326  _01_RfidSim.reader[45].nic  TagReceivedQuery  ETV
vector 354  _01_RfidSim.reader[52].nic  TagReceivedQuery  ETV
vector 358  _01_RfidSim.reader[53].nic  TagReceivedQuery  ETV
vector 386  _01_RfidSim.reader[60].nic  TagReceivedQuery  ETV
vector 390  _01_RfidSim.reader[61].nic  TagReceivedQuery  ETV
vector 562  _01_RfidSim.tag[40].nic  TagReceivedQuery  ETV
vector 594  _01_RfidSim.tag[48].nic  TagReceivedQuery  ETV
vector 598  _01_RfidSim.tag[49].nic  TagReceivedQuery  ETV
vector 630  _01_RfidSim.tag[57].nic  TagReceivedQuery  ETV
vector 634  _01_RfidSim.tag[58].nic  TagReceivedQuery  ETV
vector 666  _01_RfidSim.tag[66].nic  TagReceivedQuery  ETV
vector 670  _01_RfidSim.tag[67].nic  TagReceivedQuery  ETV
vector 706  _01_RfidSim.tag[76].nic  TagReceivedQuery  ETV
vector 298  _01_RfidSim.reader[38].nic  TagReceivedQuery  ETV
vector 302  _01_RfidSim.reader[39].nic  TagReceivedQuery  ETV
vector 330  _01_RfidSim.reader[46].nic  TagReceivedQuery  ETV
vector 334  _01_RfidSim.reader[47].nic  TagReceivedQuery  ETV
vector 502  _01_RfidSim.tag[25].nic  TagReceivedQuery  ETV
vector 534  _01_RfidSim.tag[33].nic  TagReceivedQuery  ETV
vector 538  _01_RfidSim.tag[34].nic  TagReceivedQuery  ETV
vector 542  _01_RfidSim.tag[35].nic  TagReceivedQuery  ETV
vector 570  _01_RfidSim.tag[42].nic  TagReceivedQuery  ETV
vector 574  _01_RfidSim.tag[43].nic  TagReceivedQuery  ETV
vector 578  _01_RfidSim.tag[44].nic  TagReceivedQuery  ETV
vector 610  _01_RfidSim.tag[52].nic  TagReceivedQuery  ETV
vector 146  _01_RfidSim.reader[0].nic  TagReceivedQuery  ETV
vector 154  _01_RfidSim.reader[2].nic  TagReceivedQuery  ETV
vector 178  _01_RfidSim.reader[8].nic  TagReceivedQuery  ETV
vector 182  _01_RfidSim.reader[9].nic  TagReceivedQuery  ETV
vector 186  _01_RfidSim.reader[10].nic  TagReceivedQuery  ETV
vector 406  _01_RfidSim.tag[1].nic  TagReceivedQuery  ETV
vector 410  _01_RfidSim.tag[2].nic  TagReceivedQuery  ETV
vector 446  _01_RfidSim.tag[11].nic  TagReceivedQuery  ETV
vector 394  _01_RfidSim.reader[62].nic  TagReceivedQuery  ETV
vector 682  _01_RfidSim.tag[70].nic  TagReceivedQuery  ETV
vector 714  _01_RfidSim.tag[78].nic  TagReceivedQuery  ETV
vector 718  _01_RfidSim.tag[79].nic  TagReceivedQuery  ETV
vector 722  _01_RfidSim.tag[80].nic  TagReceivedQuery  ETV
vector 310  _01_RfidSim.reader[41].nic  TagReceivedQuery  ETV
vector 690  _01_RfidSim.tag[72].nic  TagReceivedQuery  ETV
vector 694  _01_RfidSim.tag[73].nic  TagReceivedQuery  ETV
vector 166  _01_RfidSim.reader[5].nic  TagReceivedQuery  ETV
vector 254  _01_RfidSim.reader[27].nic  TagReceivedQuery  ETV
vector 266  _01_RfidSim.reader[30].nic  TagReceivedQuery  ETV
vector 286  _01_RfidSim.reader[35].nic  TagReceivedQuery  ETV
vector 318  _01_RfidSim.reader[43].nic  TagReceivedQuery  ETV
vector 418  _01_RfidSim.tag[4].nic  TagReceivedQuery  ETV
vector 454  _01_RfidSim.tag[13].nic  TagReceivedQuery  ETV
vector 490  _01_RfidSim.tag[22].nic  TagReceivedQuery  ETV
vector 494  _01_RfidSim.tag[23].nic  TagReceivedQuery  ETV
vector 526  _01_RfidSim.tag[31].nic  TagReceivedQuery  ETV
vector 530  _01_RfidSim.tag[32].nic  TagReceivedQuery  ETV
vector 350  _01_RfidSim.reader[51].nic  TagReceivedQuery  ETV
vector 362  _01_RfidSim.reader[54].nic  TagReceivedQuery  ETV
vector 382  _01_RfidSim.reader[59].nic  TagReceivedQuery  ETV
vector 674  _01_RfidSim.tag[68].nic  TagReceivedQuery  ETV
vector 710  _01_RfidSim.tag[77].nic  TagReceivedQuery  ETV
vector 150  _01_RfidSim.reader[1].nic  TagReceivedQuery  ETV
vector 438  _01_RfidSim.tag[9].nic  TagReceivedQuery  ETV
vector 442  _01_RfidSim.tag[10].nic  TagReceivedQuery  ETV
vector 478  _01_RfidSim.tag[19].nic  TagReceivedQuery  ETV
vector 514  _01_RfidSim.tag[28].nic  TagReceivedQuery  ETV
vector 498  _01_RfidSim.tag[24].nic  TagReceivedQuery  ETV
vector 638  _01_RfidSim.tag[59].nic  TagReceivedQuery  ETV
vector 482  _01_RfidSim.tag[20].nic  TagReceivedQuery  ETV
vector 518  _01_RfidSim.tag[29].nic  TagReceivedQuery  ETV
vector 366  _01_RfidSim.reader[55].nic  TagReceivedQuery  ETV
vector 398  _01_RfidSim.reader[63].nic  TagReceivedQuery  ETV
vector 678  _01_RfidSim.tag[69].nic  TagReceivedQuery  ETV
vector 402  _01_RfidSim.tag[0].nic  TagReceivedQuery  ETV
vector 486  _01_RfidSim.tag[21].nic  TagReceivedQuery  ETV
vector 522  _01_RfidSim.tag[30].nic  TagReceivedQuery  ETV
vector 558  _01_RfidSim.tag[39].nic  TagReceivedQuery  ETV
vector 167  _01_RfidSim.reader[5].nic  ReaderSendAcknowledgement  ETV
vector 270  _01_RfidSim.reader[31].nic  TagReceivedQuery  ETV
vector 606  _01_RfidSim.tag[51].nic  TagReceivedQuery  ETV
vector 642  _01_RfidSim.tag[60].nic  TagReceivedQuery  ETV
vector 421  _01_RfidSim.tag[5].nic  TagReceivedAcknowledgement  ETV
vector 602  _01_RfidSim.tag[50].nic  TagReceivedQuery  ETV
vector 179  _01_RfidSim.reader[8].nic  ReaderSendAcknowledgement  ETV
vector 311  _01_RfidSim.reader[41].nic  ReaderSendAcknowledgement  ETV
vector 405  _01_RfidSim.tag[1].nic  TagReceivedAcknowledgement  ETV
vector 646  _01_RfidSim.tag[61].nic  TagReceivedQuery  ETV
vector 697  _01_RfidSim.tag[74].nic  TagReceivedAcknowledgement  ETV
vector 199  _01_RfidSim.reader[13].nic  ReaderSendAcknowledgement  ETV
vector 457  _01_RfidSim.tag[14].nic  TagReceivedAcknowledgement  ETV
vector 654  _01_RfidSim.tag[63].nic  TagReceivedQuery  ETV
vector 702  _01_RfidSim.tag[75].nic  TagReceivedQuery  ETV
vector 238  _01_RfidSim.reader[23].nic  TagReceivedQuery  ETV
vector 430  _01_RfidSim.tag[7].nic  TagReceivedQuery  ETV
vector 466  _01_RfidSim.tag[16].nic  TagReceivedQuery  ETV
vector 470  _01_RfidSim.tag[17].nic  TagReceivedQuery  ETV
vector 414  _01_RfidSim.tag[3].nic  TagReceivedQuery  ETV
vector 450  _01_RfidSim.tag[12].nic  TagReceivedQuery  ETV
vector 550  _01_RfidSim.tag[37].nic  TagReceivedQuery  ETV
vector 618  _01_RfidSim.tag[54].nic  TagReceivedQuery  ETV
vector 506  _01_RfidSim.tag[26].nic  TagReceivedQuery  ETV
vector 206  _01_RfidSim.reader[15].nic  TagReceivedQuery  ETV
vector 395  _01_RfidSim.reader[62].nic  ReaderSendAcknowledgement  ETV
vector 339  _01_RfidSim.reader[48].nic  ReaderSendAcknowledgement  ETV
vector 713  _01_RfidSim.tag[78].nic  TagReceivedAcknowledgement  ETV
vector 693  _01_RfidSim.tag[73].nic  TagReceivedAcknowledgement  ETV
vector 445  _01_RfidSim.tag[11].nic  TagReceivedAcknowledgement  ETV
vector 461  _01_RfidSim.tag[15].nic  TagReceivedAcknowledgement  ETV
vector 653  _01_RfidSim.tag[63].nic  TagReceivedAcknowledgement  ETV
vector 434  _01_RfidSim.tag[8].nic  TagReceivedQuery  ETV
vector 566  _01_RfidSim.tag[41].nic  TagReceivedQuery  ETV
vector 251  _01_RfidSim.reader[26].nic  ReaderSendAcknowledgement  ETV
vector 481  _01_RfidSim.tag[20].nic  TagReceivedAcknowledgement  ETV
vector 387  _01_RfidSim.reader[60].nic  ReaderSendAcknowledgement  ETV
vector 705  _01_RfidSim.tag[76].nic  TagReceivedAcknowledgement  ETV
vector 147  _01_RfidSim.reader[0].nic  ReaderSendAcknowledgement  ETV
vector 546  _01_RfidSim.tag[36].nic  TagReceivedQuery  ETV
vector 582  _01_RfidSim.tag[45].nic  TagReceivedQuery  ETV
vector 401  _01_RfidSim.tag[0].nic  TagReceivedAcknowledgement  ETV
vector 159  _01_RfidSim.reader[3].nic  ReaderSendAcknowledgement  ETV
vector 399  _01_RfidSim.reader[63].nic  ReaderSendAcknowledgement  ETV
vector 417  _01_RfidSim.tag[4].nic  TagReceivedAcknowledgement  ETV
vector 681  _01_RfidSim.tag[70].nic  TagReceivedAcknowledgement  ETV
vector 207  _01_RfidSim.reader[15].nic  ReaderSendAcknowledgement  ETV
vector 371  _01_RfidSim.reader[56].nic  ReaderSendAcknowledgement  ETV
vector 465  _01_RfidSim.tag[16].nic  TagReceivedAcknowledgement  ETV
vector 689  _01_RfidSim.tag[72].nic  TagReceivedAcknowledgement  ETV
vector 717  _01_RfidSim.tag[79].nic  TagReceivedAcknowledgement  ETV
vector 183  _01_RfidSim.reader[9].nic  ReaderSendAcknowledgement  ETV
vector 307  _01_RfidSim.reader[40].nic  ReaderSendAcknowledgement  ETV
vector 617  _01_RfidSim.tag[54].nic  TagReceivedAcknowledgement  ETV
vector 721  _01_RfidSim.tag[80].nic  TagReceivedAcknowledgement  ETV
vector 441  _01_RfidSim.tag[10].nic  TagReceivedAcknowledgement  ETV
vector 319  _01_RfidSim.reader[43].nic  ReaderSendAcknowledgement  ETV
vector 650  _01_RfidSim.tag[62].nic  TagReceivedQuery  ETV
vector 633  _01_RfidSim.tag[58].nic  TagReceivedAcknowledgement  ETV
vector 151  _01_RfidSim.reader[1].nic  ReaderSendAcknowledgement  ETV
vector 175  _01_RfidSim.reader[7].nic  ReaderSendAcknowledgement  ETV
vector 409  _01_RfidSim.tag[2].nic  TagReceivedAcknowledgement  ETV
vector 433  _01_RfidSim.tag[8].nic  TagReceivedAcknowledgement  ETV
vector 665  _01_RfidSim.tag[66].nic  TagReceivedAcknowledgement  ETV
vector 677  _01_RfidSim.tag[69].nic  TagReceivedAcknowledgement  ETV
vector 425  _01_RfidSim.tag[6].nic  TagReceivedAcknowledgement  ETV
vector 331  _01_RfidSim.reader[46].nic  ReaderSendAcknowledgement  ETV
vector 437  _01_RfidSim.tag[9].nic  TagReceivedAcknowledgement  ETV
vector 513  _01_RfidSim.tag[28].nic  TagReceivedAcknowledgement  ETV
vector 335  _01_RfidSim.reader[47].nic  ReaderSendAcknowledgement  ETV
vector 363  _01_RfidSim.reader[54].nic  ReaderSendAcknowledgement  ETV
vector 239  _01_RfidSim.reader[23].nic  ReaderSendAcknowledgement  ETV
vector 686  _01_RfidSim.tag[71].nic  TagReceivedQuery  ETV
vector 227  _01_RfidSim.reader[20].nic  ReaderSendAcknowledgement  ETV
vector 529  _01_RfidSim.tag[32].nic  TagReceivedAcknowledgement  ETV
vector 351  _01_RfidSim.reader[51].nic  ReaderSendAcknowledgement  ETV
vector 614  _01_RfidSim.tag[53].nic  TagReceivedQuery  ETV
vector 701  _01_RfidSim.tag[75].nic  TagReceivedAcknowledgement  ETV
vector 263  _01_RfidSim.reader[29].nic  ReaderSendAcknowledgement  ETV
vector 565  _01_RfidSim.tag[41].nic  TagReceivedAcknowledgement  ETV
vector 469  _01_RfidSim.tag[17].nic  TagReceivedAcknowledgement  ETV
vector 453  _01_RfidSim.tag[13].nic  TagReceivedAcknowledgement  ETV
vector 191  _01_RfidSim.reader[11].nic  ReaderSendAcknowledgement  ETV
vector 625  _01_RfidSim.tag[56].nic  TagReceivedAcknowledgement  ETV
vector 510  _01_RfidSim.tag[27].nic  TagReceivedQuery  ETV
vector 171  _01_RfidSim.reader[6].nic  ReaderSendAcknowledgement  ETV
vector 429  _01_RfidSim.tag[7].nic  TagReceivedAcknowledgement  ETV
vector 203  _01_RfidSim.reader[14].nic  ReaderSendAcknowledgement  ETV
vector 557  _01_RfidSim.tag[39].nic  TagReceivedAcknowledgement  ETV
vector 474  _01_RfidSim.tag[18].nic  TagReceivedQuery  ETV
vector 291  _01_RfidSim.reader[36].nic  ReaderSendAcknowledgement  ETV
vector 287  _01_RfidSim.reader[35].nic  ReaderSendAcknowledgement  ETV
vector 521  _01_RfidSim.tag[30].nic  TagReceivedAcknowledgement  ETV
vector 485  _01_RfidSim.tag[21].nic  TagReceivedAcknowledgement  ETV
vector 235  _01_RfidSim.reader[22].nic  ReaderSendAcknowledgement  ETV
vector 413  _01_RfidSim.tag[3].nic  TagReceivedAcknowledgement  ETV
vector 211  _01_RfidSim.reader[16].nic  ReaderSendAcknowledgement  ETV
vector 271  _01_RfidSim.reader[31].nic  ReaderSendAcknowledgement  ETV
vector 473  _01_RfidSim.tag[18].nic  TagReceivedAcknowledgement  ETV
vector 533  _01_RfidSim.tag[33].nic  TagReceivedAcknowledgement  ETV
vector 629  _01_RfidSim.tag[57].nic  TagReceivedAcknowledgement  ETV
vector 477  _01_RfidSim.tag[19].nic  TagReceivedAcknowledgement  ETV
vector 347  _01_RfidSim.reader[50].nic  ReaderSendAcknowledgement  ETV
vector 537  _01_RfidSim.tag[34].nic  TagReceivedAcknowledgement  ETV
vector 489  _01_RfidSim.tag[22].nic  TagReceivedAcknowledgement  ETV
vector 315  _01_RfidSim.reader[42].nic  ReaderSendAcknowledgement  ETV
vector 573  _01_RfidSim.tag[43].nic  TagReceivedAcknowledgement  ETV
vector 449  _01_RfidSim.tag[12].nic  TagReceivedAcknowledgement  ETV
vector 605  _01_RfidSim.tag[51].nic  TagReceivedAcknowledgement  ETV
vector 593  _01_RfidSim.tag[48].nic  TagReceivedAcknowledgement  ETV
vector 367  _01_RfidSim.reader[55].nic  ReaderSendAcknowledgement  ETV
vector 525  _01_RfidSim.tag[31].nic  TagReceivedAcknowledgement  ETV
vector 505  _01_RfidSim.tag[26].nic  TagReceivedAcknowledgement  ETV
vector 709  _01_RfidSim.tag[77].nic  TagReceivedAcknowledgement  ETV
vector 283  _01_RfidSim.reader[34].nic  ReaderSendAcknowledgement  ETV
vector 163  _01_RfidSim.reader[4].nic  ReaderSendAcknowledgement  ETV
vector 299  _01_RfidSim.reader[38].nic  ReaderSendAcknowledgement  ETV
vector 641  _01_RfidSim.tag[60].nic  TagReceivedAcknowledgement  ETV
vector 577  _01_RfidSim.tag[44].nic  TagReceivedAcknowledgement  ETV
vector 323  _01_RfidSim.reader[44].nic  ReaderSendAcknowledgement  ETV
vector 601  _01_RfidSim.tag[50].nic  TagReceivedAcknowledgement  ETV
vector 243  _01_RfidSim.reader[24].nic  ReaderSendAcknowledgement  ETV
vector 517  _01_RfidSim.tag[29].nic  TagReceivedAcknowledgement  ETV
vector 355  _01_RfidSim.reader[52].nic  ReaderSendAcknowledgement  ETV
vector 673  _01_RfidSim.tag[68].nic  TagReceivedAcknowledgement  ETV
vector 231  _01_RfidSim.reader[21].nic  ReaderSendAcknowledgement  ETV
vector 215  _01_RfidSim.reader[17].nic  ReaderSendAcknowledgement  ETV
vector 553  _01_RfidSim.tag[38].nic  TagReceivedAcknowledgement  ETV
vector 255  _01_RfidSim.reader[27].nic  ReaderSendAcknowledgement  ETV
vector 155  _01_RfidSim.reader[2].nic  ReaderSendAcknowledgement  ETV
vector 501  _01_RfidSim.tag[25].nic  TagReceivedAcknowledgement  ETV
vector 661  _01_RfidSim.tag[65].nic  TagReceivedAcknowledgement  ETV
vector 585  _01_RfidSim.tag[46].nic  TagReceivedAcknowledgement  ETV
vector 669  _01_RfidSim.tag[67].nic  TagReceivedAcknowledgement  ETV
vector 187  _01_RfidSim.reader[10].nic  ReaderSendAcknowledgement  ETV
vector 267  _01_RfidSim.reader[30].nic  ReaderSendAcknowledgement  ETV
vector 609  _01_RfidSim.tag[52].nic  TagReceivedAcknowledgement  ETV
vector 569  _01_RfidSim.tag[42].nic  TagReceivedAcknowledgement  ETV
vector 589  _01_RfidSim.tag[47].nic  TagReceivedAcknowledgement  ETV
vector 549  _01_RfidSim.tag[37].nic  TagReceivedAcknowledgement  ETV
vector 597  _01_RfidSim.tag[49].nic  TagReceivedAcknowledgement  ETV
vector 621  _01_RfidSim.tag[55].nic  TagReceivedAcknowledgement  ETV
vector 259  _01_RfidSim.reader[28].nic  ReaderSendAcknowledgement  ETV
vector 645  _01_RfidSim.tag[61].nic  TagReceivedAcknowledgement  ETV
vector 561  _01_RfidSim.tag[40].nic  TagReceivedAcknowledgement  ETV
vector 649  _01_RfidSim.tag[62].nic  TagReceivedAcknowledgement  ETV
vector 493  _01_RfidSim.tag[23].nic  TagReceivedAcknowledgement  ETV
vector 497  _01_RfidSim.tag[24].nic  TagReceivedAcknowledgement  ETV
146	1329	0.000984	156
146	1878	0.001594	156
146	2412	0.002184	156
146	8004	0.006764	156
146	14871	0.012124	156
146	19855	0.015914	156
146	41858	0.034116003	156
146	45669	0.037496003	156
147	13119	0.010732424784	156
147	35620	0.029226001	156
150	1881	0.001594	163
150	2415	0.002184	163
150	3039	0.002754	163
150	8006	0.006764	163
150	14875	0.012124	163
150	19857	0.015914	163
150	45671	0.037496003	163
151	21633	0.01719	163
154	1332	0.000984	170
154	1883	0.001594	170
154	2417	0.002184	170
154	3041	0.002754	170
154	8008	0.006764	170
154	17612	0.014274	170
154	19859	0.015914	170
154	45673	0.037496003	170
154	60777	0.050646003	170
155	76485	0.066588005	170
158	851	0.000844	177
158	1601	0.001434	177
158	2182	0.002004	177
158	14879	0.012124	177
158	17614	0.014274	177
158	26762	0.021508100403	177
158	31198	0.025278100403	177
158	36653	0.030120001	177
158	39375	0.032220001	177
158	60781	0.050646003	177
159	13815	0.01125	177
159	52088	0.043452003	177
159	58309	0.048532003	177
162	853	0.000844	184
162	1604	0.001434	184
162	2184	0.002004	184
162	6715	0.005754	184
162	7366	0.006264	184
162	8215	0.006974	184
162	11078	0.009124	184
162	14881	0.012124	184
162	15805	0.012814	184
162	17616	0.014274	184
162	31200	0.025278100403	184
162	33252	0.027368100403	184
162	36655	0.030120001	184
162	39377	0.032220001	184
162	60785	0.050646003	184
163	65577	0.054742003	184
166	1607	0.001434	191
166	2187	0.002004	191
166	6632	0.005714	191
166	7368	0.006264	191
166	8218	0.006974	191
166	11023	0.009104	191
166	17620	0.014274	191
166	33254	0.027368100403	191
166	39379	0.032220001	191
166	74397	0.063928005	191
167	3529	0.00326	191
170	856	0.000844	198
170	1609	0.001434	198
170	2189	0.002004	198
170	6634	0.005714	198
170	8220	0.006974	198
170	11025	0.009104	198
170	33256	0.027368100403	198
170	74399	0.063928005	198
171	42898	0.034940101403	198
174	858	0.000844	205
174	2192	0.002004	205
174	6637	0.005714	205
174	7370	0.006264	205
174	8222	0.006974	205
174	33258	0.027368100403	205
174	74401	0.063928005	205
175	21747	0.017474100403	205
178	1335	0.000984	212
178	2421	0.002184	212
178	3043	0.002754	212
178	8012	0.006764	212
178	14883	0.012124	212
178	19863	0.015914	212
178	41861	0.034116003	212
178	45675	0.037496003	212
179	4774	0.00421	212
179	9603	0.00798	212
179	18578	0.01498	212
179	25217	0.02023	212
179	27190	0.02179	212
179	55741	0.046255364233	212
182	1338	0.000984	219
182	1886	0.001594	219
182	2423	0.002184	219
182	3045	0.002754	219
182	14885	0.012124	219
182	19865	0.015914	219
182	45677	0.037496003	219
182	60787	0.050646003	219
183	16804	0.01342	219
183	23423	0.01871	219
183	29006	0.02331	219
186	1341	0.000984	226
186	1889	0.001594	226
186	2426	0.002184	226
186	3047	0.002754	226
186	14889	0.012124	226
186	17626	0.014274	226
186	45679	0.037496003	226
186	47431	0.039196003	226
186	60791	0.050646003	226
187	80141	0.070048005	226
190	860	0.000844	233
190	1613	0.001434	233
190	2195	0.002004	233
190	6721	0.005754	233
190	12059	0.009894	233
190	14892	0.012124	233
190	26768	0.021508100403	233
190	31205	0.025278100403	233
190	33906	0.027922003	233
190	36660	0.030120001	233
190	39383	0.032220001	233
190	47435	0.039196003	233
190	60793	0.050646003	233
191	40953	0.033426001	233
194	862	0.000844	240
194	1616	0.001434	240
194	2197	0.002004	240
194	6723	0.005754	240
194	7373	0.006264	240
194	8225	0.006974	240
194	11085	0.009124	240
194	14895	0.012124	240
194	17628	0.014274	240
194	31207	0.025278100403	240
194	33260	0.027368100403	240
194	33908	0.027922003	240
194	36662	0.030120001	240
194	39385	0.032220001	240
194	60797	0.050646003	240
194	74403	0.063928005	240
198	865	0.000844	247
198	1619	0.001434	247
198	6640	0.005714	247
198	7375	0.006264	247
198	8228	0.006974	247
198	17632	0.014274	247
198	33262	0.027368100403	247
198	39387	0.032220001	247
198	60799	0.050646003	247
198	74405	0.063928005	247
199	5739	0.00484	247
199	9917	0.00821	247
199	23832	0.019014100403	247
199	25710	0.020554100403	247
199	95469	0.093720006	247